 #LAMMPS ABO3 domain
   
     2500 atoms
     1500 angles
 3  atom types
 1 angle types
   
 0.0    79.67547  xlo xhi
 0.0    19.91887  ylo yhi
 0.0    20.85318  zlo zhi
   
 Masses
   
 1   137.32700
 2    47.88000
 3    15.99940
  
 Angle Coeffs
   
 1 200  180.00
   
 Atoms
   
         1   1   1    1.34730    0.0000000   0.0000000   0.4000000
         2   1   1    1.34730    3.9837734   0.0000000   0.4000000
         3   1   1    1.34730    7.9675468   0.0000000   0.4000000
         4   1   1    1.34730   11.9513203   0.0000000   0.4000000
         5   1   1    1.34730   15.9350937   0.0000000   0.4000000
         6   1   1    1.34730   19.9188671   0.0000000   0.4000000
         7   1   1    1.34730   23.9026405   0.0000000   0.4000000
         8   1   1    1.34730   27.8864140   0.0000000   0.4000000
         9   1   1    1.34730   31.8701874   0.0000000   0.4000000
        10   1   1    1.34730   35.8539608   0.0000000   0.4000000
        11   1   1    1.34730   39.8377342   0.0000000  -0.4000000
        12   1   1    1.34730   43.8215077   0.0000000  -0.4000000
        13   1   1    1.34730   47.8052811   0.0000000  -0.4000000
        14   1   1    1.34730   51.7890545   0.0000000  -0.4000000
        15   1   1    1.34730   55.7728279   0.0000000  -0.4000000
        16   1   1    1.34730   59.7566014   0.0000000  -0.4000000
        17   1   1    1.34730   63.7403748   0.0000000  -0.4000000
        18   1   1    1.34730   67.7241482   0.0000000  -0.4000000
        19   1   1    1.34730   71.7079216   0.0000000  -0.4000000
        20   1   1    1.34730   75.6916951   0.0000000  -0.4000000
        21   1   1    1.34730    0.0000000   3.9837734   0.4000000
        22   1   1    1.34730    3.9837734   3.9837734   0.4000000
        23   1   1    1.34730    7.9675468   3.9837734   0.4000000
        24   1   1    1.34730   11.9513203   3.9837734   0.4000000
        25   1   1    1.34730   15.9350937   3.9837734   0.4000000
        26   1   1    1.34730   19.9188671   3.9837734   0.4000000
        27   1   1    1.34730   23.9026405   3.9837734   0.4000000
        28   1   1    1.34730   27.8864140   3.9837734   0.4000000
        29   1   1    1.34730   31.8701874   3.9837734   0.4000000
        30   1   1    1.34730   35.8539608   3.9837734   0.4000000
        31   1   1    1.34730   39.8377342   3.9837734  -0.4000000
        32   1   1    1.34730   43.8215077   3.9837734  -0.4000000
        33   1   1    1.34730   47.8052811   3.9837734  -0.4000000
        34   1   1    1.34730   51.7890545   3.9837734  -0.4000000
        35   1   1    1.34730   55.7728279   3.9837734  -0.4000000
        36   1   1    1.34730   59.7566014   3.9837734  -0.4000000
        37   1   1    1.34730   63.7403748   3.9837734  -0.4000000
        38   1   1    1.34730   67.7241482   3.9837734  -0.4000000
        39   1   1    1.34730   71.7079216   3.9837734  -0.4000000
        40   1   1    1.34730   75.6916951   3.9837734  -0.4000000
        41   1   1    1.34730    0.0000000   7.9675468   0.4000000
        42   1   1    1.34730    3.9837734   7.9675468   0.4000000
        43   1   1    1.34730    7.9675468   7.9675468   0.4000000
        44   1   1    1.34730   11.9513203   7.9675468   0.4000000
        45   1   1    1.34730   15.9350937   7.9675468   0.4000000
        46   1   1    1.34730   19.9188671   7.9675468   0.4000000
        47   1   1    1.34730   23.9026405   7.9675468   0.4000000
        48   1   1    1.34730   27.8864140   7.9675468   0.4000000
        49   1   1    1.34730   31.8701874   7.9675468   0.4000000
        50   1   1    1.34730   35.8539608   7.9675468   0.4000000
        51   1   1    1.34730   39.8377342   7.9675468  -0.4000000
        52   1   1    1.34730   43.8215077   7.9675468  -0.4000000
        53   1   1    1.34730   47.8052811   7.9675468  -0.4000000
        54   1   1    1.34730   51.7890545   7.9675468  -0.4000000
        55   1   1    1.34730   55.7728279   7.9675468  -0.4000000
        56   1   1    1.34730   59.7566014   7.9675468  -0.4000000
        57   1   1    1.34730   63.7403748   7.9675468  -0.4000000
        58   1   1    1.34730   67.7241482   7.9675468  -0.4000000
        59   1   1    1.34730   71.7079216   7.9675468  -0.4000000
        60   1   1    1.34730   75.6916951   7.9675468  -0.4000000
        61   1   1    1.34730    0.0000000  11.9513203   0.4000000
        62   1   1    1.34730    3.9837734  11.9513203   0.4000000
        63   1   1    1.34730    7.9675468  11.9513203   0.4000000
        64   1   1    1.34730   11.9513203  11.9513203   0.4000000
        65   1   1    1.34730   15.9350937  11.9513203   0.4000000
        66   1   1    1.34730   19.9188671  11.9513203   0.4000000
        67   1   1    1.34730   23.9026405  11.9513203   0.4000000
        68   1   1    1.34730   27.8864140  11.9513203   0.4000000
        69   1   1    1.34730   31.8701874  11.9513203   0.4000000
        70   1   1    1.34730   35.8539608  11.9513203   0.4000000
        71   1   1    1.34730   39.8377342  11.9513203  -0.4000000
        72   1   1    1.34730   43.8215077  11.9513203  -0.4000000
        73   1   1    1.34730   47.8052811  11.9513203  -0.4000000
        74   1   1    1.34730   51.7890545  11.9513203  -0.4000000
        75   1   1    1.34730   55.7728279  11.9513203  -0.4000000
        76   1   1    1.34730   59.7566014  11.9513203  -0.4000000
        77   1   1    1.34730   63.7403748  11.9513203  -0.4000000
        78   1   1    1.34730   67.7241482  11.9513203  -0.4000000
        79   1   1    1.34730   71.7079216  11.9513203  -0.4000000
        80   1   1    1.34730   75.6916951  11.9513203  -0.4000000
        81   1   1    1.34730    0.0000000  15.9350937   0.4000000
        82   1   1    1.34730    3.9837734  15.9350937   0.4000000
        83   1   1    1.34730    7.9675468  15.9350937   0.4000000
        84   1   1    1.34730   11.9513203  15.9350937   0.4000000
        85   1   1    1.34730   15.9350937  15.9350937   0.4000000
        86   1   1    1.34730   19.9188671  15.9350937   0.4000000
        87   1   1    1.34730   23.9026405  15.9350937   0.4000000
        88   1   1    1.34730   27.8864140  15.9350937   0.4000000
        89   1   1    1.34730   31.8701874  15.9350937   0.4000000
        90   1   1    1.34730   35.8539608  15.9350937   0.4000000
        91   1   1    1.34730   39.8377342  15.9350937  -0.4000000
        92   1   1    1.34730   43.8215077  15.9350937  -0.4000000
        93   1   1    1.34730   47.8052811  15.9350937  -0.4000000
        94   1   1    1.34730   51.7890545  15.9350937  -0.4000000
        95   1   1    1.34730   55.7728279  15.9350937  -0.4000000
        96   1   1    1.34730   59.7566014  15.9350937  -0.4000000
        97   1   1    1.34730   63.7403748  15.9350937  -0.4000000
        98   1   1    1.34730   67.7241482  15.9350937  -0.4000000
        99   1   1    1.34730   71.7079216  15.9350937  -0.4000000
       100   1   1    1.34730   75.6916951  15.9350937  -0.4000000
       101   1   1    1.34730    0.0000000   0.0000000   4.5706352
       102   1   1    1.34730    3.9837734   0.0000000   4.5706352
       103   1   1    1.34730    7.9675468   0.0000000   4.5706352
       104   1   1    1.34730   11.9513203   0.0000000   4.5706352
       105   1   1    1.34730   15.9350937   0.0000000   4.5706352
       106   1   1    1.34730   19.9188671   0.0000000   4.5706352
       107   1   1    1.34730   23.9026405   0.0000000   4.5706352
       108   1   1    1.34730   27.8864140   0.0000000   4.5706352
       109   1   1    1.34730   31.8701874   0.0000000   4.5706352
       110   1   1    1.34730   35.8539608   0.0000000   4.5706352
       111   1   1    1.34730   39.8377342   0.0000000   3.7706352
       112   1   1    1.34730   43.8215077   0.0000000   3.7706352
       113   1   1    1.34730   47.8052811   0.0000000   3.7706352
       114   1   1    1.34730   51.7890545   0.0000000   3.7706352
       115   1   1    1.34730   55.7728279   0.0000000   3.7706352
       116   1   1    1.34730   59.7566014   0.0000000   3.7706352
       117   1   1    1.34730   63.7403748   0.0000000   3.7706352
       118   1   1    1.34730   67.7241482   0.0000000   3.7706352
       119   1   1    1.34730   71.7079216   0.0000000   3.7706352
       120   1   1    1.34730   75.6916951   0.0000000   3.7706352
       121   1   1    1.34730    0.0000000   3.9837734   4.5706352
       122   1   1    1.34730    3.9837734   3.9837734   4.5706352
       123   1   1    1.34730    7.9675468   3.9837734   4.5706352
       124   1   1    1.34730   11.9513203   3.9837734   4.5706352
       125   1   1    1.34730   15.9350937   3.9837734   4.5706352
       126   1   1    1.34730   19.9188671   3.9837734   4.5706352
       127   1   1    1.34730   23.9026405   3.9837734   4.5706352
       128   1   1    1.34730   27.8864140   3.9837734   4.5706352
       129   1   1    1.34730   31.8701874   3.9837734   4.5706352
       130   1   1    1.34730   35.8539608   3.9837734   4.5706352
       131   1   1    1.34730   39.8377342   3.9837734   3.7706352
       132   1   1    1.34730   43.8215077   3.9837734   3.7706352
       133   1   1    1.34730   47.8052811   3.9837734   3.7706352
       134   1   1    1.34730   51.7890545   3.9837734   3.7706352
       135   1   1    1.34730   55.7728279   3.9837734   3.7706352
       136   1   1    1.34730   59.7566014   3.9837734   3.7706352
       137   1   1    1.34730   63.7403748   3.9837734   3.7706352
       138   1   1    1.34730   67.7241482   3.9837734   3.7706352
       139   1   1    1.34730   71.7079216   3.9837734   3.7706352
       140   1   1    1.34730   75.6916951   3.9837734   3.7706352
       141   1   1    1.34730    0.0000000   7.9675468   4.5706352
       142   1   1    1.34730    3.9837734   7.9675468   4.5706352
       143   1   1    1.34730    7.9675468   7.9675468   4.5706352
       144   1   1    1.34730   11.9513203   7.9675468   4.5706352
       145   1   1    1.34730   15.9350937   7.9675468   4.5706352
       146   1   1    1.34730   19.9188671   7.9675468   4.5706352
       147   1   1    1.34730   23.9026405   7.9675468   4.5706352
       148   1   1    1.34730   27.8864140   7.9675468   4.5706352
       149   1   1    1.34730   31.8701874   7.9675468   4.5706352
       150   1   1    1.34730   35.8539608   7.9675468   4.5706352
       151   1   1    1.34730   39.8377342   7.9675468   3.7706352
       152   1   1    1.34730   43.8215077   7.9675468   3.7706352
       153   1   1    1.34730   47.8052811   7.9675468   3.7706352
       154   1   1    1.34730   51.7890545   7.9675468   3.7706352
       155   1   1    1.34730   55.7728279   7.9675468   3.7706352
       156   1   1    1.34730   59.7566014   7.9675468   3.7706352
       157   1   1    1.34730   63.7403748   7.9675468   3.7706352
       158   1   1    1.34730   67.7241482   7.9675468   3.7706352
       159   1   1    1.34730   71.7079216   7.9675468   3.7706352
       160   1   1    1.34730   75.6916951   7.9675468   3.7706352
       161   1   1    1.34730    0.0000000  11.9513203   4.5706352
       162   1   1    1.34730    3.9837734  11.9513203   4.5706352
       163   1   1    1.34730    7.9675468  11.9513203   4.5706352
       164   1   1    1.34730   11.9513203  11.9513203   4.5706352
       165   1   1    1.34730   15.9350937  11.9513203   4.5706352
       166   1   1    1.34730   19.9188671  11.9513203   4.5706352
       167   1   1    1.34730   23.9026405  11.9513203   4.5706352
       168   1   1    1.34730   27.8864140  11.9513203   4.5706352
       169   1   1    1.34730   31.8701874  11.9513203   4.5706352
       170   1   1    1.34730   35.8539608  11.9513203   4.5706352
       171   1   1    1.34730   39.8377342  11.9513203   3.7706352
       172   1   1    1.34730   43.8215077  11.9513203   3.7706352
       173   1   1    1.34730   47.8052811  11.9513203   3.7706352
       174   1   1    1.34730   51.7890545  11.9513203   3.7706352
       175   1   1    1.34730   55.7728279  11.9513203   3.7706352
       176   1   1    1.34730   59.7566014  11.9513203   3.7706352
       177   1   1    1.34730   63.7403748  11.9513203   3.7706352
       178   1   1    1.34730   67.7241482  11.9513203   3.7706352
       179   1   1    1.34730   71.7079216  11.9513203   3.7706352
       180   1   1    1.34730   75.6916951  11.9513203   3.7706352
       181   1   1    1.34730    0.0000000  15.9350937   4.5706352
       182   1   1    1.34730    3.9837734  15.9350937   4.5706352
       183   1   1    1.34730    7.9675468  15.9350937   4.5706352
       184   1   1    1.34730   11.9513203  15.9350937   4.5706352
       185   1   1    1.34730   15.9350937  15.9350937   4.5706352
       186   1   1    1.34730   19.9188671  15.9350937   4.5706352
       187   1   1    1.34730   23.9026405  15.9350937   4.5706352
       188   1   1    1.34730   27.8864140  15.9350937   4.5706352
       189   1   1    1.34730   31.8701874  15.9350937   4.5706352
       190   1   1    1.34730   35.8539608  15.9350937   4.5706352
       191   1   1    1.34730   39.8377342  15.9350937   3.7706352
       192   1   1    1.34730   43.8215077  15.9350937   3.7706352
       193   1   1    1.34730   47.8052811  15.9350937   3.7706352
       194   1   1    1.34730   51.7890545  15.9350937   3.7706352
       195   1   1    1.34730   55.7728279  15.9350937   3.7706352
       196   1   1    1.34730   59.7566014  15.9350937   3.7706352
       197   1   1    1.34730   63.7403748  15.9350937   3.7706352
       198   1   1    1.34730   67.7241482  15.9350937   3.7706352
       199   1   1    1.34730   71.7079216  15.9350937   3.7706352
       200   1   1    1.34730   75.6916951  15.9350937   3.7706352
       201   1   1    1.34730    0.0000000   0.0000000   8.7412704
       202   1   1    1.34730    3.9837734   0.0000000   8.7412704
       203   1   1    1.34730    7.9675468   0.0000000   8.7412704
       204   1   1    1.34730   11.9513203   0.0000000   8.7412704
       205   1   1    1.34730   15.9350937   0.0000000   8.7412704
       206   1   1    1.34730   19.9188671   0.0000000   8.7412704
       207   1   1    1.34730   23.9026405   0.0000000   8.7412704
       208   1   1    1.34730   27.8864140   0.0000000   8.7412704
       209   1   1    1.34730   31.8701874   0.0000000   8.7412704
       210   1   1    1.34730   35.8539608   0.0000000   8.7412704
       211   1   1    1.34730   39.8377342   0.0000000   7.9412704
       212   1   1    1.34730   43.8215077   0.0000000   7.9412704
       213   1   1    1.34730   47.8052811   0.0000000   7.9412704
       214   1   1    1.34730   51.7890545   0.0000000   7.9412704
       215   1   1    1.34730   55.7728279   0.0000000   7.9412704
       216   1   1    1.34730   59.7566014   0.0000000   7.9412704
       217   1   1    1.34730   63.7403748   0.0000000   7.9412704
       218   1   1    1.34730   67.7241482   0.0000000   7.9412704
       219   1   1    1.34730   71.7079216   0.0000000   7.9412704
       220   1   1    1.34730   75.6916951   0.0000000   7.9412704
       221   1   1    1.34730    0.0000000   3.9837734   8.7412704
       222   1   1    1.34730    3.9837734   3.9837734   8.7412704
       223   1   1    1.34730    7.9675468   3.9837734   8.7412704
       224   1   1    1.34730   11.9513203   3.9837734   8.7412704
       225   1   1    1.34730   15.9350937   3.9837734   8.7412704
       226   1   1    1.34730   19.9188671   3.9837734   8.7412704
       227   1   1    1.34730   23.9026405   3.9837734   8.7412704
       228   1   1    1.34730   27.8864140   3.9837734   8.7412704
       229   1   1    1.34730   31.8701874   3.9837734   8.7412704
       230   1   1    1.34730   35.8539608   3.9837734   8.7412704
       231   1   1    1.34730   39.8377342   3.9837734   7.9412704
       232   1   1    1.34730   43.8215077   3.9837734   7.9412704
       233   1   1    1.34730   47.8052811   3.9837734   7.9412704
       234   1   1    1.34730   51.7890545   3.9837734   7.9412704
       235   1   1    1.34730   55.7728279   3.9837734   7.9412704
       236   1   1    1.34730   59.7566014   3.9837734   7.9412704
       237   1   1    1.34730   63.7403748   3.9837734   7.9412704
       238   1   1    1.34730   67.7241482   3.9837734   7.9412704
       239   1   1    1.34730   71.7079216   3.9837734   7.9412704
       240   1   1    1.34730   75.6916951   3.9837734   7.9412704
       241   1   1    1.34730    0.0000000   7.9675468   8.7412704
       242   1   1    1.34730    3.9837734   7.9675468   8.7412704
       243   1   1    1.34730    7.9675468   7.9675468   8.7412704
       244   1   1    1.34730   11.9513203   7.9675468   8.7412704
       245   1   1    1.34730   15.9350937   7.9675468   8.7412704
       246   1   1    1.34730   19.9188671   7.9675468   8.7412704
       247   1   1    1.34730   23.9026405   7.9675468   8.7412704
       248   1   1    1.34730   27.8864140   7.9675468   8.7412704
       249   1   1    1.34730   31.8701874   7.9675468   8.7412704
       250   1   1    1.34730   35.8539608   7.9675468   8.7412704
       251   1   1    1.34730   39.8377342   7.9675468   7.9412704
       252   1   1    1.34730   43.8215077   7.9675468   7.9412704
       253   1   1    1.34730   47.8052811   7.9675468   7.9412704
       254   1   1    1.34730   51.7890545   7.9675468   7.9412704
       255   1   1    1.34730   55.7728279   7.9675468   7.9412704
       256   1   1    1.34730   59.7566014   7.9675468   7.9412704
       257   1   1    1.34730   63.7403748   7.9675468   7.9412704
       258   1   1    1.34730   67.7241482   7.9675468   7.9412704
       259   1   1    1.34730   71.7079216   7.9675468   7.9412704
       260   1   1    1.34730   75.6916951   7.9675468   7.9412704
       261   1   1    1.34730    0.0000000  11.9513203   8.7412704
       262   1   1    1.34730    3.9837734  11.9513203   8.7412704
       263   1   1    1.34730    7.9675468  11.9513203   8.7412704
       264   1   1    1.34730   11.9513203  11.9513203   8.7412704
       265   1   1    1.34730   15.9350937  11.9513203   8.7412704
       266   1   1    1.34730   19.9188671  11.9513203   8.7412704
       267   1   1    1.34730   23.9026405  11.9513203   8.7412704
       268   1   1    1.34730   27.8864140  11.9513203   8.7412704
       269   1   1    1.34730   31.8701874  11.9513203   8.7412704
       270   1   1    1.34730   35.8539608  11.9513203   8.7412704
       271   1   1    1.34730   39.8377342  11.9513203   7.9412704
       272   1   1    1.34730   43.8215077  11.9513203   7.9412704
       273   1   1    1.34730   47.8052811  11.9513203   7.9412704
       274   1   1    1.34730   51.7890545  11.9513203   7.9412704
       275   1   1    1.34730   55.7728279  11.9513203   7.9412704
       276   1   1    1.34730   59.7566014  11.9513203   7.9412704
       277   1   1    1.34730   63.7403748  11.9513203   7.9412704
       278   1   1    1.34730   67.7241482  11.9513203   7.9412704
       279   1   1    1.34730   71.7079216  11.9513203   7.9412704
       280   1   1    1.34730   75.6916951  11.9513203   7.9412704
       281   1   1    1.34730    0.0000000  15.9350937   8.7412704
       282   1   1    1.34730    3.9837734  15.9350937   8.7412704
       283   1   1    1.34730    7.9675468  15.9350937   8.7412704
       284   1   1    1.34730   11.9513203  15.9350937   8.7412704
       285   1   1    1.34730   15.9350937  15.9350937   8.7412704
       286   1   1    1.34730   19.9188671  15.9350937   8.7412704
       287   1   1    1.34730   23.9026405  15.9350937   8.7412704
       288   1   1    1.34730   27.8864140  15.9350937   8.7412704
       289   1   1    1.34730   31.8701874  15.9350937   8.7412704
       290   1   1    1.34730   35.8539608  15.9350937   8.7412704
       291   1   1    1.34730   39.8377342  15.9350937   7.9412704
       292   1   1    1.34730   43.8215077  15.9350937   7.9412704
       293   1   1    1.34730   47.8052811  15.9350937   7.9412704
       294   1   1    1.34730   51.7890545  15.9350937   7.9412704
       295   1   1    1.34730   55.7728279  15.9350937   7.9412704
       296   1   1    1.34730   59.7566014  15.9350937   7.9412704
       297   1   1    1.34730   63.7403748  15.9350937   7.9412704
       298   1   1    1.34730   67.7241482  15.9350937   7.9412704
       299   1   1    1.34730   71.7079216  15.9350937   7.9412704
       300   1   1    1.34730   75.6916951  15.9350937   7.9412704
       301   1   1    1.34730    0.0000000   0.0000000  12.9119056
       302   1   1    1.34730    3.9837734   0.0000000  12.9119056
       303   1   1    1.34730    7.9675468   0.0000000  12.9119056
       304   1   1    1.34730   11.9513203   0.0000000  12.9119056
       305   1   1    1.34730   15.9350937   0.0000000  12.9119056
       306   1   1    1.34730   19.9188671   0.0000000  12.9119056
       307   1   1    1.34730   23.9026405   0.0000000  12.9119056
       308   1   1    1.34730   27.8864140   0.0000000  12.9119056
       309   1   1    1.34730   31.8701874   0.0000000  12.9119056
       310   1   1    1.34730   35.8539608   0.0000000  12.9119056
       311   1   1    1.34730   39.8377342   0.0000000  12.1119056
       312   1   1    1.34730   43.8215077   0.0000000  12.1119056
       313   1   1    1.34730   47.8052811   0.0000000  12.1119056
       314   1   1    1.34730   51.7890545   0.0000000  12.1119056
       315   1   1    1.34730   55.7728279   0.0000000  12.1119056
       316   1   1    1.34730   59.7566014   0.0000000  12.1119056
       317   1   1    1.34730   63.7403748   0.0000000  12.1119056
       318   1   1    1.34730   67.7241482   0.0000000  12.1119056
       319   1   1    1.34730   71.7079216   0.0000000  12.1119056
       320   1   1    1.34730   75.6916951   0.0000000  12.1119056
       321   1   1    1.34730    0.0000000   3.9837734  12.9119056
       322   1   1    1.34730    3.9837734   3.9837734  12.9119056
       323   1   1    1.34730    7.9675468   3.9837734  12.9119056
       324   1   1    1.34730   11.9513203   3.9837734  12.9119056
       325   1   1    1.34730   15.9350937   3.9837734  12.9119056
       326   1   1    1.34730   19.9188671   3.9837734  12.9119056
       327   1   1    1.34730   23.9026405   3.9837734  12.9119056
       328   1   1    1.34730   27.8864140   3.9837734  12.9119056
       329   1   1    1.34730   31.8701874   3.9837734  12.9119056
       330   1   1    1.34730   35.8539608   3.9837734  12.9119056
       331   1   1    1.34730   39.8377342   3.9837734  12.1119056
       332   1   1    1.34730   43.8215077   3.9837734  12.1119056
       333   1   1    1.34730   47.8052811   3.9837734  12.1119056
       334   1   1    1.34730   51.7890545   3.9837734  12.1119056
       335   1   1    1.34730   55.7728279   3.9837734  12.1119056
       336   1   1    1.34730   59.7566014   3.9837734  12.1119056
       337   1   1    1.34730   63.7403748   3.9837734  12.1119056
       338   1   1    1.34730   67.7241482   3.9837734  12.1119056
       339   1   1    1.34730   71.7079216   3.9837734  12.1119056
       340   1   1    1.34730   75.6916951   3.9837734  12.1119056
       341   1   1    1.34730    0.0000000   7.9675468  12.9119056
       342   1   1    1.34730    3.9837734   7.9675468  12.9119056
       343   1   1    1.34730    7.9675468   7.9675468  12.9119056
       344   1   1    1.34730   11.9513203   7.9675468  12.9119056
       345   1   1    1.34730   15.9350937   7.9675468  12.9119056
       346   1   1    1.34730   19.9188671   7.9675468  12.9119056
       347   1   1    1.34730   23.9026405   7.9675468  12.9119056
       348   1   1    1.34730   27.8864140   7.9675468  12.9119056
       349   1   1    1.34730   31.8701874   7.9675468  12.9119056
       350   1   1    1.34730   35.8539608   7.9675468  12.9119056
       351   1   1    1.34730   39.8377342   7.9675468  12.1119056
       352   1   1    1.34730   43.8215077   7.9675468  12.1119056
       353   1   1    1.34730   47.8052811   7.9675468  12.1119056
       354   1   1    1.34730   51.7890545   7.9675468  12.1119056
       355   1   1    1.34730   55.7728279   7.9675468  12.1119056
       356   1   1    1.34730   59.7566014   7.9675468  12.1119056
       357   1   1    1.34730   63.7403748   7.9675468  12.1119056
       358   1   1    1.34730   67.7241482   7.9675468  12.1119056
       359   1   1    1.34730   71.7079216   7.9675468  12.1119056
       360   1   1    1.34730   75.6916951   7.9675468  12.1119056
       361   1   1    1.34730    0.0000000  11.9513203  12.9119056
       362   1   1    1.34730    3.9837734  11.9513203  12.9119056
       363   1   1    1.34730    7.9675468  11.9513203  12.9119056
       364   1   1    1.34730   11.9513203  11.9513203  12.9119056
       365   1   1    1.34730   15.9350937  11.9513203  12.9119056
       366   1   1    1.34730   19.9188671  11.9513203  12.9119056
       367   1   1    1.34730   23.9026405  11.9513203  12.9119056
       368   1   1    1.34730   27.8864140  11.9513203  12.9119056
       369   1   1    1.34730   31.8701874  11.9513203  12.9119056
       370   1   1    1.34730   35.8539608  11.9513203  12.9119056
       371   1   1    1.34730   39.8377342  11.9513203  12.1119056
       372   1   1    1.34730   43.8215077  11.9513203  12.1119056
       373   1   1    1.34730   47.8052811  11.9513203  12.1119056
       374   1   1    1.34730   51.7890545  11.9513203  12.1119056
       375   1   1    1.34730   55.7728279  11.9513203  12.1119056
       376   1   1    1.34730   59.7566014  11.9513203  12.1119056
       377   1   1    1.34730   63.7403748  11.9513203  12.1119056
       378   1   1    1.34730   67.7241482  11.9513203  12.1119056
       379   1   1    1.34730   71.7079216  11.9513203  12.1119056
       380   1   1    1.34730   75.6916951  11.9513203  12.1119056
       381   1   1    1.34730    0.0000000  15.9350937  12.9119056
       382   1   1    1.34730    3.9837734  15.9350937  12.9119056
       383   1   1    1.34730    7.9675468  15.9350937  12.9119056
       384   1   1    1.34730   11.9513203  15.9350937  12.9119056
       385   1   1    1.34730   15.9350937  15.9350937  12.9119056
       386   1   1    1.34730   19.9188671  15.9350937  12.9119056
       387   1   1    1.34730   23.9026405  15.9350937  12.9119056
       388   1   1    1.34730   27.8864140  15.9350937  12.9119056
       389   1   1    1.34730   31.8701874  15.9350937  12.9119056
       390   1   1    1.34730   35.8539608  15.9350937  12.9119056
       391   1   1    1.34730   39.8377342  15.9350937  12.1119056
       392   1   1    1.34730   43.8215077  15.9350937  12.1119056
       393   1   1    1.34730   47.8052811  15.9350937  12.1119056
       394   1   1    1.34730   51.7890545  15.9350937  12.1119056
       395   1   1    1.34730   55.7728279  15.9350937  12.1119056
       396   1   1    1.34730   59.7566014  15.9350937  12.1119056
       397   1   1    1.34730   63.7403748  15.9350937  12.1119056
       398   1   1    1.34730   67.7241482  15.9350937  12.1119056
       399   1   1    1.34730   71.7079216  15.9350937  12.1119056
       400   1   1    1.34730   75.6916951  15.9350937  12.1119056
       401   1   1    1.34730    0.0000000   0.0000000  17.0825408
       402   1   1    1.34730    3.9837734   0.0000000  17.0825408
       403   1   1    1.34730    7.9675468   0.0000000  17.0825408
       404   1   1    1.34730   11.9513203   0.0000000  17.0825408
       405   1   1    1.34730   15.9350937   0.0000000  17.0825408
       406   1   1    1.34730   19.9188671   0.0000000  17.0825408
       407   1   1    1.34730   23.9026405   0.0000000  17.0825408
       408   1   1    1.34730   27.8864140   0.0000000  17.0825408
       409   1   1    1.34730   31.8701874   0.0000000  17.0825408
       410   1   1    1.34730   35.8539608   0.0000000  17.0825408
       411   1   1    1.34730   39.8377342   0.0000000  16.2825408
       412   1   1    1.34730   43.8215077   0.0000000  16.2825408
       413   1   1    1.34730   47.8052811   0.0000000  16.2825408
       414   1   1    1.34730   51.7890545   0.0000000  16.2825408
       415   1   1    1.34730   55.7728279   0.0000000  16.2825408
       416   1   1    1.34730   59.7566014   0.0000000  16.2825408
       417   1   1    1.34730   63.7403748   0.0000000  16.2825408
       418   1   1    1.34730   67.7241482   0.0000000  16.2825408
       419   1   1    1.34730   71.7079216   0.0000000  16.2825408
       420   1   1    1.34730   75.6916951   0.0000000  16.2825408
       421   1   1    1.34730    0.0000000   3.9837734  17.0825408
       422   1   1    1.34730    3.9837734   3.9837734  17.0825408
       423   1   1    1.34730    7.9675468   3.9837734  17.0825408
       424   1   1    1.34730   11.9513203   3.9837734  17.0825408
       425   1   1    1.34730   15.9350937   3.9837734  17.0825408
       426   1   1    1.34730   19.9188671   3.9837734  17.0825408
       427   1   1    1.34730   23.9026405   3.9837734  17.0825408
       428   1   1    1.34730   27.8864140   3.9837734  17.0825408
       429   1   1    1.34730   31.8701874   3.9837734  17.0825408
       430   1   1    1.34730   35.8539608   3.9837734  17.0825408
       431   1   1    1.34730   39.8377342   3.9837734  16.2825408
       432   1   1    1.34730   43.8215077   3.9837734  16.2825408
       433   1   1    1.34730   47.8052811   3.9837734  16.2825408
       434   1   1    1.34730   51.7890545   3.9837734  16.2825408
       435   1   1    1.34730   55.7728279   3.9837734  16.2825408
       436   1   1    1.34730   59.7566014   3.9837734  16.2825408
       437   1   1    1.34730   63.7403748   3.9837734  16.2825408
       438   1   1    1.34730   67.7241482   3.9837734  16.2825408
       439   1   1    1.34730   71.7079216   3.9837734  16.2825408
       440   1   1    1.34730   75.6916951   3.9837734  16.2825408
       441   1   1    1.34730    0.0000000   7.9675468  17.0825408
       442   1   1    1.34730    3.9837734   7.9675468  17.0825408
       443   1   1    1.34730    7.9675468   7.9675468  17.0825408