 #LAMMPS ABO3 domain
   
      160 atoms
       96 angles
 3  atom types
 1 angle types
   
 0.0    11.31371  xlo xhi
 0.0    11.31371  ylo yhi
 0.0    16.00000  zlo zhi
   
 Masses
   
 1   208.98039
 2    55.84500
 3    15.99940
  
   
 Atoms
   
         1   1   1    1.93753      0.000    0.0000000   0.0000000   0.0000000    0    0    0
         2   1   1    1.93753      0.000    5.6568542   0.0000000   0.0000000    0    0    0
         3   1   1    1.93753      0.000    0.0000000   5.6568542   0.0000000    0    0    0
         4   1   1    1.93753      0.000    5.6568542   5.6568542   0.0000000    0    0    0
         5   1   1    1.93753      0.000    0.0000000   0.0000000   4.0000000    0    0    0
         6   1   1    1.93753      0.000    5.6568542   0.0000000   4.0000000    0    0    0
         7   1   1    1.93753      0.000    0.0000000   5.6568542   4.0000000    0    0    0
         8   1   1    1.93753      0.000    5.6568542   5.6568542   4.0000000    0    0    0
         9   1   1    1.93753      0.000    0.0000000   0.0000000   8.0000000    0    0    0
        10   1   1    1.93753      0.000    5.6568542   0.0000000   8.0000000    0    0    0
        11   1   1    1.93753      0.000    0.0000000   5.6568542   8.0000000    0    0    0
        12   1   1    1.93753      0.000    5.6568542   5.6568542   8.0000000    0    0    0
        13   1   1    1.93753      0.000    0.0000000   0.0000000  12.0000000    0    0    0
        14   1   1    1.93753      0.000    5.6568542   0.0000000  12.0000000    0    0    0
        15   1   1    1.93753      0.000    0.0000000   5.6568542  12.0000000    0    0    0
        16   1   1    1.93753      0.000    5.6568542   5.6568542  12.0000000    0    0    0
        17   1   1    1.93753      0.000    2.8284271   2.8284271   0.0000000    0    0    0
        18   1   1    1.93753      0.000    8.4852812   2.8284271   0.0000000    0    0    0
        19   1   1    1.93753      0.000    2.8284271   8.4852812   0.0000000    0    0    0
        20   1   1    1.93753      0.000    8.4852812   8.4852812   0.0000000    0    0    0
        21   1   1    1.93753      0.000    2.8284271   2.8284271   4.0000000    0    0    0
        22   1   1    1.93753      0.000    8.4852812   2.8284271   4.0000000    0    0    0
        23   1   1    1.93753      0.000    2.8284271   8.4852812   4.0000000    0    0    0
        24   1   1    1.93753      0.000    8.4852812   8.4852812   4.0000000    0    0    0
        25   1   1    1.93753      0.000    2.8284271   2.8284271   8.0000000    0    0    0
        26   1   1    1.93753      0.000    8.4852812   2.8284271   8.0000000    0    0    0
        27   1   1    1.93753      0.000    2.8284271   8.4852812   8.0000000    0    0    0
        28   1   1    1.93753      0.000    8.4852812   8.4852812   8.0000000    0    0    0
        29   1   1    1.93753      0.000    2.8284271   2.8284271  12.0000000    0    0    0
        30   1   1    1.93753      0.000    8.4852812   2.8284271  12.0000000    0    0    0
        31   1   1    1.93753      0.000    2.8284271   8.4852812  12.0000000    0    0    0
        32   1   1    1.93753      0.000    8.4852812   8.4852812  12.0000000    0    0    0
        33   1   2    1.77706      2.500    0.0000000   2.8284271   2.0000000    0    0   -1
        34   1   2    1.77706      2.500    5.6568542   2.8284271   2.0000000    0    0   -1
        35   1   2    1.77706      2.500    0.0000000   8.4852812   2.0000000    0    0   -1
        36   1   2    1.77706      2.500    5.6568542   8.4852812   2.0000000    0    0   -1
        37   1   2    1.77706      2.500    0.0000000   2.8284271   6.0000000    0    0    1
        38   1   2    1.77706      2.500    5.6568542   2.8284271   6.0000000    0    0    1
        39   1   2    1.77706      2.500    0.0000000   8.4852812   6.0000000    0    0    1
        40   1   2    1.77706      2.500    5.6568542   8.4852812   6.0000000    0    0    1
        41   1   2    1.77706      2.500    0.0000000   2.8284271  10.0000000    0    0   -1
        42   1   2    1.77706      2.500    5.6568542   2.8284271  10.0000000    0    0   -1
        43   1   2    1.77706      2.500    0.0000000   8.4852812  10.0000000    0    0   -1
        44   1   2    1.77706      2.500    5.6568542   8.4852812  10.0000000    0    0   -1
        45   1   2    1.77706      2.500    0.0000000   2.8284271  14.0000000    0    0    1
        46   1   2    1.77706      2.500    5.6568542   2.8284271  14.0000000    0    0    1
        47   1   2    1.77706      2.500    0.0000000   8.4852812  14.0000000    0    0    1
        48   1   2    1.77706      2.500    5.6568542   8.4852812  14.0000000    0    0    1
        49   1   2    1.77706      2.500    2.8284271   0.0000000   2.0000000    0    0    1
        50   1   2    1.77706      2.500    8.4852812   0.0000000   2.0000000    0    0    1
        51   1   2    1.77706      2.500    2.8284271   5.6568542   2.0000000    0    0    1
        52   1   2    1.77706      2.500    8.4852812   5.6568542   2.0000000    0    0    1
        53   1   2    1.77706      2.500    2.8284271   0.0000000   6.0000000    0    0   -1
        54   1   2    1.77706      2.500    8.4852812   0.0000000   6.0000000    0    0   -1
        55   1   2    1.77706      2.500    2.8284271   5.6568542   6.0000000    0    0   -1
        56   1   2    1.77706      2.500    8.4852812   5.6568542   6.0000000    0    0   -1
        57   1   2    1.77706      2.500    2.8284271   0.0000000  10.0000000    0    0    1
        58   1   2    1.77706      2.500    8.4852812   0.0000000  10.0000000    0    0    1
        59   1   2    1.77706      2.500    2.8284271   5.6568542  10.0000000    0    0    1
        60   1   2    1.77706      2.500    8.4852812   5.6568542  10.0000000    0    0    1
        61   1   2    1.77706      2.500    2.8284271   0.0000000  14.0000000    0    0   -1
        62   1   2    1.77706      2.500    8.4852812   0.0000000  14.0000000    0    0   -1
        63   1   2    1.77706      2.500    2.8284271   5.6568542  14.0000000    0    0   -1
        64   1   2    1.77706      2.500    8.4852812   5.6568542  14.0000000    0    0   -1
        65   1   3   -1.23820      0.000   -0.0322891   2.4014529  -0.0152212    0    0    0
        66   1   3   -1.23820      0.000    5.6245651   2.4014529  -0.0152212    0    0    0
        67   1   3   -1.23820      0.000   -0.0322891   8.0583070  -0.0152212    0    0    0
        68   1   3   -1.23820      0.000    5.6245651   8.0583070  -0.0152212    0    0    0
        69   1   3   -1.23820      0.000   -0.0635952   3.6823755   4.0917906    0    0    0
        70   1   3   -1.23820      0.000    5.5932590   3.6823755   4.0917906    0    0    0
        71   1   3   -1.23820      0.000   -0.0635952   9.3392296   4.0917906    0    0    0
        72   1   3   -1.23820      0.000    5.5932590   9.3392296   4.0917906    0    0    0
        73   1   3   -1.23820      0.000   -0.0635952   1.9744787   8.0917906    0    0    0
        74   1   3   -1.23820      0.000    5.5932590   1.9744787   8.0917906    0    0    0
        75   1   3   -1.23820      0.000   -0.0635952   7.6313328   8.0917906    0    0    0
        76   1   3   -1.23820      0.000    5.5932590   7.6313328   8.0917906    0    0    0
        77   1   3   -1.23820      0.000   -0.0635952   3.6823755  12.0917906    0    0    0
        78   1   3   -1.23820      0.000    5.5932590   3.6823755  12.0917906    0    0    0
        79   1   3   -1.23820      0.000   -0.0635952   9.3392296  12.0917906    0    0    0
        80   1   3   -1.23820      0.000    5.5932590   9.3392296  12.0917906    0    0    0
        81   1   3   -1.23820      0.000    2.7961380   0.4269742  -0.0152212    0    0    0
        82   1   3   -1.23820      0.000    8.4529922   0.4269742  -0.0152212    0    0    0
        83   1   3   -1.23820      0.000    2.7961380   6.0838283  -0.0152212    0    0    0
        84   1   3   -1.23820      0.000    8.4529922   6.0838283  -0.0152212    0    0    0
        85   1   3   -1.23820      0.000    2.7648319  -0.8539484   4.0917906    0    0    0
        86   1   3   -1.23820      0.000    8.4216861  -0.8539484   4.0917906    0    0    0
        87   1   3   -1.23820      0.000    2.7648319   4.8029058   4.0917906    0    0    0
        88   1   3   -1.23820      0.000    8.4216861   4.8029058   4.0917906    0    0    0
        89   1   3   -1.23820      0.000    2.7648319   0.8539484   8.0917906    0    0    0
        90   1   3   -1.23820      0.000    8.4216861   0.8539484   8.0917906    0    0    0
        91   1   3   -1.23820      0.000    2.7648319   6.5108025   8.0917906    0    0    0
        92   1   3   -1.23820      0.000    8.4216861   6.5108025   8.0917906    0    0    0
        93   1   3   -1.23820      0.000    2.7648319  -0.8539484  12.0917906    0    0    0
        94   1   3   -1.23820      0.000    8.4216861  -0.8539484  12.0917906    0    0    0
        95   1   3   -1.23820      0.000    2.7648319   4.8029058  12.0917906    0    0    0
        96   1   3   -1.23820      0.000    8.4216861   4.8029058  12.0917906    0    0    0
        97   1   3   -1.23820      0.000    1.0203475   0.8905360   2.5588641    0    0    0
        98   1   3   -1.23820      0.000    6.6772017   0.8905360   2.5588641    0    0    0
        99   1   3   -1.23820      0.000    1.0203475   6.5473902   2.5588641    0    0    0
       100   1   3   -1.23820      0.000    6.6772017   6.5473902   2.5588641    0    0    0
       101   1   3   -1.23820      0.000    1.8742959   1.7444844   5.3511987    0    0    0
       102   1   3   -1.23820      0.000    7.5311501   1.7444844   5.3511987    0    0    0
       103   1   3   -1.23820      0.000    1.8742959   7.4013385   5.3511987    0    0    0
       104   1   3   -1.23820      0.000    7.5311501   7.4013385   5.3511987    0    0    0
       105   1   3   -1.23820      0.000    1.0203475   0.8905360  10.5588641    0    0    0
       106   1   3   -1.23820      0.000    6.6772017   0.8905360  10.5588641    0    0    0
       107   1   3   -1.23820      0.000    1.0203475   6.5473902  10.5588641    0    0    0
       108   1   3   -1.23820      0.000    6.6772017   6.5473902  10.5588641    0    0    0
       109   1   3   -1.23820      0.000    1.8742959   1.7444844  13.3511987    0    0    0
       110   1   3   -1.23820      0.000    7.5311501   1.7444844  13.3511987    0    0    0
       111   1   3   -1.23820      0.000    1.8742959   7.4013385  13.3511987    0    0    0
       112   1   3   -1.23820      0.000    7.5311501   7.4013385  13.3511987    0    0    0
       113   1   3   -1.23820      0.000    4.6365066   4.7663181   1.4411359    0    0    0
       114   1   3   -1.23820      0.000   10.1398894   4.4615092   1.7209155    0    0    0
       115   1   3   -1.23820      0.000    4.4292202  10.1076004   1.6752518    0    0    0
       116   1   3   -1.23820      0.000    9.8994948   9.8994948   2.0000000    0    0    0
       117   1   3   -1.23820      0.000    3.7825582   3.9123698   6.6488013    0    0    0
       118   1   3   -1.23820      0.000    9.7129152   4.0345350   6.3247482    0    0    0
       119   1   3   -1.23820      0.000    4.0022460   9.6806262   6.2790845    0    0    0
       120   1   3   -1.23820      0.000    9.8994948   9.8994948   6.0000000    0    0    0
       121   1   3   -1.23820      0.000    4.6365066   4.7663181   9.4411359    0    0    0
       122   1   3   -1.23820      0.000   10.1398894   4.4615092   9.7209155    0    0    0
       123   1   3   -1.23820      0.000    4.4292202  10.1076004   9.6752518    0    0    0
       124   1   3   -1.23820      0.000    9.8994948   9.8994948  10.0000000    0    0    0
       125   1   3   -1.23820      0.000    3.7825582   3.9123698  14.6488013    0    0    0
       126   1   3   -1.23820      0.000    9.7129152   4.0345350  14.3247482    0    0    0
       127   1   3   -1.23820      0.000    4.0022460   9.6806262  14.2790845    0    0    0
       128   1   3   -1.23820      0.000    9.8994948   9.8994948  14.0000000    0    0    0
       129   1   3   -1.23820      0.000    1.8742959   3.9123698   1.3511987    0    0    0
       130   1   3   -1.23820      0.000    7.5311501   3.9123698   1.3511987    0    0    0
       131   1   3   -1.23820      0.000    1.6546082   9.6806262   1.7209155    0    0    0
       132   1   3   -1.23820      0.000    7.3114623   9.6806262   1.7209155    0    0    0
       133   1   3   -1.23820      0.000    1.0203475   4.7663181   6.5588641    0    0    0
       134   1   3   -1.23820      0.000    6.6772017   4.7663181   6.5588641    0    0    0
       135   1   3   -1.23820      0.000    1.2276340  10.1076004   6.3247482    0    0    0
       136   1   3   -1.23820      0.000    6.8844881  10.1076004   6.3247482    0    0    0
       137   1   3   -1.23820      0.000    1.8742959   3.9123698   9.3511987    0    0    0
       138   1   3   -1.23820      0.000    7.5311501   3.9123698   9.3511987    0    0    0
       139   1   3   -1.23820      0.000    1.6546082   9.6806262   9.7209155    0    0    0
       140   1   3   -1.23820      0.000    7.3114623   9.6806262   9.7209155    0    0    0
       141   1   3   -1.23820      0.000    1.0203475   4.7663181  14.5588641    0    0    0
       142   1   3   -1.23820      0.000    6.6772017   4.7663181  14.5588641    0    0    0
       143   1   3   -1.23820      0.000    1.2276340  10.1076004  14.3247482    0    0    0
       144   1   3   -1.23820      0.000    6.8844881  10.1076004  14.3247482    0    0    0
       145   1   3   -1.23820      0.000    3.7825582   1.7444844   2.6488013    0    0    0
       146   1   3   -1.23820      0.000    9.7129152   1.6223191   2.3247482    0    0    0
       147   1   3   -1.23820      0.000    3.7825582   7.4013385   2.6488013    0    0    0
       148   1   3   -1.23820      0.000    9.7129152   7.2791733   2.3247482    0    0    0
       149   1   3   -1.23820      0.000    4.6365066   0.8905360   5.4411359    0    0    0
       150   1   3   -1.23820      0.000   10.1398894   1.1953449   5.7209155    0    0    0
       151   1   3   -1.23820      0.000    4.6365066   6.5473902   5.4411359    0    0    0
       152   1   3   -1.23820      0.000   10.1398894   6.8521991   5.7209155    0    0    0
       153   1   3   -1.23820      0.000    3.7825582   1.7444844  10.6488013    0    0    0
       154   1   3   -1.23820      0.000    9.7129152   1.6223191  10.3247482    0    0    0
       155   1   3   -1.23820      0.000    3.7825582   7.4013385  10.6488013    0    0    0
       156   1   3   -1.23820      0.000    9.7129152   7.2791733  10.3247482    0    0    0
       157   1   3   -1.23820      0.000    4.6365066   0.8905360  13.4411359    0    0    0
       158   1   3   -1.23820      0.000   10.1398894   1.1953449  13.7209155    0    0    0
       159   1   3   -1.23820      0.000    4.6365066   6.5473902  13.4411359    0    0    0
       160   1   3   -1.23820      0.000   10.1398894   6.8521991  13.7209155    0    0    0
   
 Angles
   
                    1           1                   33                   69                   37
                    2           1                   34                   70                   38
                    3           1                   35                   71                   39
                    4           1                   36                   72                   40
                    5           1                   37                   73                   41
                    6           1                   38                   74                   42
                    7           1                   39                   75                   43
                    8           1                   40                   76                   44
                    9           1                   41                   77                   45
                   10           1                   42                   78                   46
                   11           1                   43                   79                   47
                   12           1                   44                   80                   48
                   13           1                   45                   65                   33
                   14           1                   46                   66                   34
                   15           1                   47                   67                   35
                   16           1                   48                   68                   36
                   17           1                   49                   85                   53
                   18           1                   50                   86                   54
                   19           1                   51                   87                   55
                   20           1                   52                   88                   56
                   21           1                   53                   89                   57
                   22           1                   54                   90                   58
                   23           1                   55                   91                   59
                   24           1                   56                   92                   60
                   25           1                   57                   93                   61
                   26           1                   58                   94                   62
                   27           1                   59                   95                   63
                   28           1                   60                   96                   64
                   29           1                   61                   81                   49
                   30           1                   62                   82                   50
                   31           1                   63                   83                   51
                   32           1                   64                   84                   52
                   33           1                   33                  114                   52
                   34           1                   34                  113                   51
                   35           1                   35                  116                   50
                   36           1                   36                  115                   49
                   37           1                   37                  118                   56
                   38           1                   38                  117                   55
                   39           1                   39                  120                   54
                   40           1                   40                  119                   53
                   41           1                   41                  122                   60
                   42           1                   42                  121                   59
                   43           1                   43                  124                   58
                   44           1                   44                  123                   57
                   45           1                   45                  126                   64
                   46           1                   46                  125                   63
                   47           1                   47                  128                   62
                   48           1                   48                  127                   61
                   49           1                   49                   97                   33
                   50           1                   50                   98                   34
                   51           1                   51                   99                   35
                   52           1                   52                  100                   36
                   53           1                   53                  101                   37
                   54           1                   54                  102                   38
                   55           1                   55                  103                   39
                   56           1                   56                  104                   40
                   57           1                   57                  105                   41
                   58           1                   58                  106                   42
                   59           1                   59                  107                   43
                   60           1                   60                  108                   44
                   61           1                   61                  109                   45
                   62           1                   62                  110                   46
                   63           1                   63                  111                   47
                   64           1                   64                  112                   48
                   65           1                   33                  129                   51
                   66           1                   34                  130                   52
                   67           1                   35                  131                   49
                   68           1                   36                  132                   50
                   69           1                   37                  133                   55
                   70           1                   38                  134                   56
                   71           1                   39                  135                   53
                   72           1                   40                  136                   54
                   73           1                   41                  137                   59
                   74           1                   42                  138                   60
                   75           1                   43                  139                   57
                   76           1                   44                  140                   58
                   77           1                   45                  141                   63
                   78           1                   46                  142                   64
                   79           1                   47                  143                   61
                   80           1                   48                  144                   62
                   81           1                   49                  145                   34
                   82           1                   50                  146                   33
                   83           1                   51                  147                   36
                   84           1                   52                  148                   35
                   85           1                   53                  149                   38
                   86           1                   54                  150                   37
                   87           1                   55                  151                   40
                   88           1                   56                  152                   39
                   89           1                   57                  153                   42
                   90           1                   58                  154                   41
                   91           1                   59                  155                   44
                   92           1                   60                  156                   43
                   93           1                   61                  157                   46
                   94           1                   62                  158                   45
                   95           1                   63                  159                   48
                   96           1                   64                  160                   47
