 #LAMMPS ABO3 domain
   
      160 atoms
 3  atom types
   
 0.0    11.31371  xlo xhi
 0.0    11.31371  ylo yhi
 0.0    16.00000  zlo zhi
   
 Masses
   
 1   208.98039
 2    55.84500
 3    15.99940
  
   
 Atoms
   
         1   1   1    1.93753    0.0000000   0.0000000   0.0000000
         2   1   1    1.93753    5.6568542   0.0000000   0.0000000
         3   1   1    1.93753    0.0000000   5.6568542   0.0000000
         4   1   1    1.93753    5.6568542   5.6568542   0.0000000
         5   1   1    1.93753    0.0000000   0.0000000   4.0000000
         6   1   1    1.93753    5.6568542   0.0000000   4.0000000
         7   1   1    1.93753    0.0000000   5.6568542   4.0000000
         8   1   1    1.93753    5.6568542   5.6568542   4.0000000
         9   1   1    1.93753    0.0000000   0.0000000   8.0000000
        10   1   1    1.93753    5.6568542   0.0000000   8.0000000
        11   1   1    1.93753    0.0000000   5.6568542   8.0000000
        12   1   1    1.93753    5.6568542   5.6568542   8.0000000
        13   1   1    1.93753    0.0000000   0.0000000  12.0000000
        14   1   1    1.93753    5.6568542   0.0000000  12.0000000
        15   1   1    1.93753    0.0000000   5.6568542  12.0000000
        16   1   1    1.93753    5.6568542   5.6568542  12.0000000
        17   1   1    1.93753    2.8284271   2.8284271   0.0000000
        18   1   1    1.93753    8.4852812   2.8284271   0.0000000
        19   1   1    1.93753    2.8284271   8.4852812   0.0000000
        20   1   1    1.93753    8.4852812   8.4852812   0.0000000
        21   1   1    1.93753    2.8284271   2.8284271   4.0000000
        22   1   1    1.93753    8.4852812   2.8284271   4.0000000
        23   1   1    1.93753    2.8284271   8.4852812   4.0000000
        24   1   1    1.93753    8.4852812   8.4852812   4.0000000
        25   1   1    1.93753    2.8284271   2.8284271   8.0000000
        26   1   1    1.93753    8.4852812   2.8284271   8.0000000
        27   1   1    1.93753    2.8284271   8.4852812   8.0000000
        28   1   1    1.93753    8.4852812   8.4852812   8.0000000
        29   1   1    1.93753    2.8284271   2.8284271  12.0000000
        30   1   1    1.93753    8.4852812   2.8284271  12.0000000
        31   1   1    1.93753    2.8284271   8.4852812  12.0000000
        32   1   1    1.93753    8.4852812   8.4852812  12.0000000
        33   1   2    1.77706    0.0000000   2.8284271   2.0000000
        34   1   2    1.77706    5.6568542   2.8284271   2.0000000
        35   1   2    1.77706    0.0000000   8.4852812   2.0000000
        36   1   2    1.77706    5.6568542   8.4852812   2.0000000
        37   1   2    1.77706    0.0000000   2.8284271   6.0000000
        38   1   2    1.77706    5.6568542   2.8284271   6.0000000
        39   1   2    1.77706    0.0000000   8.4852812   6.0000000
        40   1   2    1.77706    5.6568542   8.4852812   6.0000000
        41   1   2    1.77706    0.0000000   2.8284271  10.0000000
        42   1   2    1.77706    5.6568542   2.8284271  10.0000000
        43   1   2    1.77706    0.0000000   8.4852812  10.0000000
        44   1   2    1.77706    5.6568542   8.4852812  10.0000000
        45   1   2    1.77706    0.0000000   2.8284271  14.0000000
        46   1   2    1.77706    5.6568542   2.8284271  14.0000000
        47   1   2    1.77706    0.0000000   8.4852812  14.0000000
        48   1   2    1.77706    5.6568542   8.4852812  14.0000000
        49   1   2    1.77706    2.8284271   0.0000000   2.0000000
        50   1   2    1.77706    8.4852812   0.0000000   2.0000000
        51   1   2    1.77706    2.8284271   5.6568542   2.0000000
        52   1   2    1.77706    8.4852812   5.6568542   2.0000000
        53   1   2    1.77706    2.8284271   0.0000000   6.0000000
        54   1   2    1.77706    8.4852812   0.0000000   6.0000000
        55   1   2    1.77706    2.8284271   5.6568542   6.0000000
        56   1   2    1.77706    8.4852812   5.6568542   6.0000000
        57   1   2    1.77706    2.8284271   0.0000000  10.0000000
        58   1   2    1.77706    8.4852812   0.0000000  10.0000000
        59   1   2    1.77706    2.8284271   5.6568542  10.0000000
        60   1   2    1.77706    8.4852812   5.6568542  10.0000000
        61   1   2    1.77706    2.8284271   0.0000000  14.0000000
        62   1   2    1.77706    8.4852812   0.0000000  14.0000000
        63   1   2    1.77706    2.8284271   5.6568542  14.0000000
        64   1   2    1.77706    8.4852812   5.6568542  14.0000000
        65   1   3   -1.23820   -0.0322891   2.4014529  -0.0152212
        66   1   3   -1.23820    5.6245651   2.4014529  -0.0152212
        67   1   3   -1.23820   -0.0322891   8.0583070  -0.0152212
        68   1   3   -1.23820    5.6245651   8.0583070  -0.0152212
        69   1   3   -1.23820   -0.0635952   3.6823755   4.0917906
        70   1   3   -1.23820    5.5932590   3.6823755   4.0917906
        71   1   3   -1.23820   -0.0635952   9.3392296   4.0917906
        72   1   3   -1.23820    5.5932590   9.3392296   4.0917906
        73   1   3   -1.23820   -0.0635952   1.9744787   8.0917906
        74   1   3   -1.23820    5.5932590   1.9744787   8.0917906
        75   1   3   -1.23820   -0.0635952   7.6313328   8.0917906
        76   1   3   -1.23820    5.5932590   7.6313328   8.0917906
        77   1   3   -1.23820   -0.0635952   3.6823755  12.0917906
        78   1   3   -1.23820    5.5932590   3.6823755  12.0917906
        79   1   3   -1.23820   -0.0635952   9.3392296  12.0917906
        80   1   3   -1.23820    5.5932590   9.3392296  12.0917906
        81   1   3   -1.23820    2.7961380   0.4269742  -0.0152212
        82   1   3   -1.23820    8.4529922   0.4269742  -0.0152212
        83   1   3   -1.23820    2.7961380   6.0838283  -0.0152212
        84   1   3   -1.23820    8.4529922   6.0838283  -0.0152212
        85   1   3   -1.23820    2.7648319  -0.8539484   4.0917906
        86   1   3   -1.23820    8.4216861  -0.8539484   4.0917906
        87   1   3   -1.23820    2.7648319   4.8029058   4.0917906
        88   1   3   -1.23820    8.4216861   4.8029058   4.0917906
        89   1   3   -1.23820    2.7648319   0.8539484   8.0917906
        90   1   3   -1.23820    8.4216861   0.8539484   8.0917906
        91   1   3   -1.23820    2.7648319   6.5108025   8.0917906
        92   1   3   -1.23820    8.4216861   6.5108025   8.0917906
        93   1   3   -1.23820    2.7648319  -0.8539484  12.0917906
        94   1   3   -1.23820    8.4216861  -0.8539484  12.0917906
        95   1   3   -1.23820    2.7648319   4.8029058  12.0917906
        96   1   3   -1.23820    8.4216861   4.8029058  12.0917906
        97   1   3   -1.23820    1.0203475   0.8905360   2.5588641
        98   1   3   -1.23820    6.6772017   0.8905360   2.5588641
        99   1   3   -1.23820    1.0203475   6.5473902   2.5588641
       100   1   3   -1.23820    6.6772017   6.5473902   2.5588641
       101   1   3   -1.23820    1.8742959   1.7444844   5.3511987
       102   1   3   -1.23820    7.5311501   1.7444844   5.3511987
       103   1   3   -1.23820    1.8742959   7.4013385   5.3511987
       104   1   3   -1.23820    7.5311501   7.4013385   5.3511987
       105   1   3   -1.23820    1.0203475   0.8905360  10.5588641
       106   1   3   -1.23820    6.6772017   0.8905360  10.5588641
       107   1   3   -1.23820    1.0203475   6.5473902  10.5588641
       108   1   3   -1.23820    6.6772017   6.5473902  10.5588641
       109   1   3   -1.23820    1.8742959   1.7444844  13.3511987
       110   1   3   -1.23820    7.5311501   1.7444844  13.3511987
       111   1   3   -1.23820    1.8742959   7.4013385  13.3511987
       112   1   3   -1.23820    7.5311501   7.4013385  13.3511987
       113   1   3   -1.23820    4.6365066   4.7663181   1.4411359
       114   1   3   -1.23820   10.1398894   4.4615092   1.7209155
       115   1   3   -1.23820    4.4292202  10.1076004   1.6752518
       116   1   3   -1.23820    9.8994948   9.8994948   2.0000000
       117   1   3   -1.23820    3.7825582   3.9123698   6.6488013
       118   1   3   -1.23820    9.7129152   4.0345350   6.3247482
       119   1   3   -1.23820    4.0022460   9.6806262   6.2790845
       120   1   3   -1.23820    9.8994948   9.8994948   6.0000000
       121   1   3   -1.23820    4.6365066   4.7663181   9.4411359
       122   1   3   -1.23820   10.1398894   4.4615092   9.7209155
       123   1   3   -1.23820    4.4292202  10.1076004   9.6752518
       124   1   3   -1.23820    9.8994948   9.8994948  10.0000000
       125   1   3   -1.23820    3.7825582   3.9123698  14.6488013
       126   1   3   -1.23820    9.7129152   4.0345350  14.3247482
       127   1   3   -1.23820    4.0022460   9.6806262  14.2790845
       128   1   3   -1.23820    9.8994948   9.8994948  14.0000000
       129   1   3   -1.23820    1.8742959   3.9123698   1.3511987
       130   1   3   -1.23820    7.5311501   3.9123698   1.3511987
       131   1   3   -1.23820    1.6546082   9.6806262   1.7209155
       132   1   3   -1.23820    7.3114623   9.6806262   1.7209155
       133   1   3   -1.23820    1.0203475   4.7663181   6.5588641
       134   1   3   -1.23820    6.6772017   4.7663181   6.5588641
       135   1   3   -1.23820    1.2276340  10.1076004   6.3247482
       136   1   3   -1.23820    6.8844881  10.1076004   6.3247482
       137   1   3   -1.23820    1.8742959   3.9123698   9.3511987
       138   1   3   -1.23820    7.5311501   3.9123698   9.3511987
       139   1   3   -1.23820    1.6546082   9.6806262   9.7209155
       140   1   3   -1.23820    7.3114623   9.6806262   9.7209155
       141   1   3   -1.23820    1.0203475   4.7663181  14.5588641
       142   1   3   -1.23820    6.6772017   4.7663181  14.5588641
       143   1   3   -1.23820    1.2276340  10.1076004  14.3247482
       144   1   3   -1.23820    6.8844881  10.1076004  14.3247482
       145   1   3   -1.23820    3.7825582   1.7444844   2.6488013
       146   1   3   -1.23820    9.7129152   1.6223191   2.3247482
       147   1   3   -1.23820    3.7825582   7.4013385   2.6488013
       148   1   3   -1.23820    9.7129152   7.2791733   2.3247482
       149   1   3   -1.23820    4.6365066   0.8905360   5.4411359
       150   1   3   -1.23820   10.1398894   1.1953449   5.7209155
       151   1   3   -1.23820    4.6365066   6.5473902   5.4411359
       152   1   3   -1.23820   10.1398894   6.8521991   5.7209155
       153   1   3   -1.23820    3.7825582   1.7444844  10.6488013
       154   1   3   -1.23820    9.7129152   1.6223191  10.3247482
       155   1   3   -1.23820    3.7825582   7.4013385  10.6488013
       156   1   3   -1.23820    9.7129152   7.2791733  10.3247482
       157   1   3   -1.23820    4.6365066   0.8905360  13.4411359
       158   1   3   -1.23820   10.1398894   1.1953449  13.7209155
       159   1   3   -1.23820    4.6365066   6.5473902  13.4411359
       160   1   3   -1.23820   10.1398894   6.8521991  13.7209155
