 #LAMMPS ABO3 domain
   
     5000 atoms
     3000 angles
 3  atom types
 1 angle types
   
 0.0    38.91468  xlo xhi
 0.0    38.91468  ylo yhi
 0.0    38.91468  zlo zhi
   
 Masses
   
 1   208.98039
 2    55.84500
 3    15.99940
  
   
 Atoms
   
         1   1   1    1.93753      0.000    0.2826740   0.2837923   0.2826185    0    0    0
         2   1   1    1.93753      0.000    8.0656092   0.2837923   0.2826185    0    0    0
         3   1   1    1.93753      0.000   15.8485443   0.2837923   0.2826185    0    0    0
         4   1   1    1.93753      0.000   23.6314795   0.2837923   0.2826185    0    0    0
         5   1   1    1.93753      0.000   31.4144146   0.2837923   0.2826185    0    0    0
         6   1   1    1.93753      0.000    0.2826740   8.0667275   0.2826185    0    0    0
         7   1   1    1.93753      0.000    8.0656092   8.0667275   0.2826185    0    0    0
         8   1   1    1.93753      0.000   15.8485443   8.0667275   0.2826185    0    0    0
         9   1   1    1.93753      0.000   23.6314795   8.0667275   0.2826185    0    0    0
        10   1   1    1.93753      0.000   31.4144146   8.0667275   0.2826185    0    0    0
        11   1   1    1.93753      0.000    0.2826740  15.8496626   0.2826185    0    0    0
        12   1   1    1.93753      0.000    8.0656092  15.8496626   0.2826185    0    0    0
        13   1   1    1.93753      0.000   15.8485443  15.8496626   0.2826185    0    0    0
        14   1   1    1.93753      0.000   23.6314795  15.8496626   0.2826185    0    0    0
        15   1   1    1.93753      0.000   31.4144146  15.8496626   0.2826185    0    0    0
        16   1   1    1.93753      0.000    0.2826740  23.6325977   0.2826185    0    0    0
        17   1   1    1.93753      0.000    8.0656092  23.6325977   0.2826185    0    0    0
        18   1   1    1.93753      0.000   15.8485443  23.6325977   0.2826185    0    0    0
        19   1   1    1.93753      0.000   23.6314795  23.6325977   0.2826185    0    0    0
        20   1   1    1.93753      0.000   31.4144146  23.6325977   0.2826185    0    0    0
        21   1   1    1.93753      0.000    0.2826740  31.4155329   0.2826185    0    0    0
        22   1   1    1.93753      0.000    8.0656092  31.4155329   0.2826185    0    0    0
        23   1   1    1.93753      0.000   15.8485443  31.4155329   0.2826185    0    0    0
        24   1   1    1.93753      0.000   23.6314795  31.4155329   0.2826185    0    0    0
        25   1   1    1.93753      0.000   31.4144146  31.4155329   0.2826185    0    0    0
        26   1   1    1.93753      0.000    0.2826740   0.2837923   8.0655536    0    0    0
        27   1   1    1.93753      0.000    8.0656092   0.2837923   8.0655536    0    0    0
        28   1   1    1.93753      0.000   15.8485443   0.2837923   8.0655536    0    0    0
        29   1   1    1.93753      0.000   23.6314795   0.2837923   8.0655536    0    0    0
        30   1   1    1.93753      0.000   31.4144146   0.2837923   8.0655536    0    0    0
        31   1   1    1.93753      0.000    0.2826740   8.0667275   8.0655536    0    0    0
        32   1   1    1.93753      0.000    8.0656092   8.0667275   8.0655536    0    0    0
        33   1   1    1.93753      0.000   15.8485443   8.0667275   8.0655536    0    0    0
        34   1   1    1.93753      0.000   23.6314795   8.0667275   8.0655536    0    0    0
        35   1   1    1.93753      0.000   31.4144146   8.0667275   8.0655536    0    0    0
        36   1   1    1.93753      0.000    0.2826740  15.8496626   8.0655536    0    0    0
        37   1   1    1.93753      0.000    8.0656092  15.8496626   8.0655536    0    0    0
        38   1   1    1.93753      0.000   15.8485443  15.8496626   8.0655536    0    0    0
        39   1   1    1.93753      0.000   23.6314795  15.8496626   8.0655536    0    0    0
        40   1   1    1.93753      0.000   31.4144146  15.8496626   8.0655536    0    0    0
        41   1   1    1.93753      0.000    0.2826740  23.6325977   8.0655536    0    0    0
        42   1   1    1.93753      0.000    8.0656092  23.6325977   8.0655536    0    0    0
        43   1   1    1.93753      0.000   15.8485443  23.6325977   8.0655536    0    0    0
        44   1   1    1.93753      0.000   23.6314795  23.6325977   8.0655536    0    0    0
        45   1   1    1.93753      0.000   31.4144146  23.6325977   8.0655536    0    0    0
        46   1   1    1.93753      0.000    0.2826740  31.4155329   8.0655536    0    0    0
        47   1   1    1.93753      0.000    8.0656092  31.4155329   8.0655536    0    0    0
        48   1   1    1.93753      0.000   15.8485443  31.4155329   8.0655536    0    0    0
        49   1   1    1.93753      0.000   23.6314795  31.4155329   8.0655536    0    0    0
        50   1   1    1.93753      0.000   31.4144146  31.4155329   8.0655536    0    0    0
        51   1   1    1.93753      0.000    0.2826740   0.2837923  15.8484888    0    0    0
        52   1   1    1.93753      0.000    8.0656092   0.2837923  15.8484888    0    0    0
        53   1   1    1.93753      0.000   15.8485443   0.2837923  15.8484888    0    0    0
        54   1   1    1.93753      0.000   23.6314795   0.2837923  15.8484888    0    0    0
        55   1   1    1.93753      0.000   31.4144146   0.2837923  15.8484888    0    0    0
        56   1   1    1.93753      0.000    0.2826740   8.0667275  15.8484888    0    0    0
        57   1   1    1.93753      0.000    8.0656092   8.0667275  15.8484888    0    0    0
        58   1   1    1.93753      0.000   15.8485443   8.0667275  15.8484888    0    0    0
        59   1   1    1.93753      0.000   23.6314795   8.0667275  15.8484888    0    0    0
        60   1   1    1.93753      0.000   31.4144146   8.0667275  15.8484888    0    0    0
        61   1   1    1.93753      0.000    0.2826740  15.8496626  15.8484888    0    0    0
        62   1   1    1.93753      0.000    8.0656092  15.8496626  15.8484888    0    0    0
        63   1   1    1.93753      0.000   15.8485443  15.8496626  15.8484888    0    0    0
        64   1   1    1.93753      0.000   23.6314795  15.8496626  15.8484888    0    0    0
        65   1   1    1.93753      0.000   31.4144146  15.8496626  15.8484888    0    0    0
        66   1   1    1.93753      0.000    0.2826740  23.6325977  15.8484888    0    0    0
        67   1   1    1.93753      0.000    8.0656092  23.6325977  15.8484888    0    0    0
        68   1   1    1.93753      0.000   15.8485443  23.6325977  15.8484888    0    0    0
        69   1   1    1.93753      0.000   23.6314795  23.6325977  15.8484888    0    0    0
        70   1   1    1.93753      0.000   31.4144146  23.6325977  15.8484888    0    0    0
        71   1   1    1.93753      0.000    0.2826740  31.4155329  15.8484888    0    0    0
        72   1   1    1.93753      0.000    8.0656092  31.4155329  15.8484888    0    0    0
        73   1   1    1.93753      0.000   15.8485443  31.4155329  15.8484888    0    0    0
        74   1   1    1.93753      0.000   23.6314795  31.4155329  15.8484888    0    0    0
        75   1   1    1.93753      0.000   31.4144146  31.4155329  15.8484888    0    0    0
        76   1   1    1.93753      0.000    0.2826740   0.2837923  23.6314239    0    0    0
        77   1   1    1.93753      0.000    8.0656092   0.2837923  23.6314239    0    0    0
        78   1   1    1.93753      0.000   15.8485443   0.2837923  23.6314239    0    0    0
        79   1   1    1.93753      0.000   23.6314795   0.2837923  23.6314239    0    0    0
        80   1   1    1.93753      0.000   31.4144146   0.2837923  23.6314239    0    0    0
        81   1   1    1.93753      0.000    0.2826740   8.0667275  23.6314239    0    0    0
        82   1   1    1.93753      0.000    8.0656092   8.0667275  23.6314239    0    0    0
        83   1   1    1.93753      0.000   15.8485443   8.0667275  23.6314239    0    0    0
        84   1   1    1.93753      0.000   23.6314795   8.0667275  23.6314239    0    0    0
        85   1   1    1.93753      0.000   31.4144146   8.0667275  23.6314239    0    0    0
        86   1   1    1.93753      0.000    0.2826740  15.8496626  23.6314239    0    0    0
        87   1   1    1.93753      0.000    8.0656092  15.8496626  23.6314239    0    0    0
        88   1   1    1.93753      0.000   15.8485443  15.8496626  23.6314239    0    0    0
        89   1   1    1.93753      0.000   23.6314795  15.8496626  23.6314239    0    0    0
        90   1   1    1.93753      0.000   31.4144146  15.8496626  23.6314239    0    0    0
        91   1   1    1.93753      0.000    0.2826740  23.6325977  23.6314239    0    0    0
        92   1   1    1.93753      0.000    8.0656092  23.6325977  23.6314239    0    0    0
        93   1   1    1.93753      0.000   15.8485443  23.6325977  23.6314239    0    0    0
        94   1   1    1.93753      0.000   23.6314795  23.6325977  23.6314239    0    0    0
        95   1   1    1.93753      0.000   31.4144146  23.6325977  23.6314239    0    0    0
        96   1   1    1.93753      0.000    0.2826740  31.4155329  23.6314239    0    0    0
        97   1   1    1.93753      0.000    8.0656092  31.4155329  23.6314239    0    0    0
        98   1   1    1.93753      0.000   15.8485443  31.4155329  23.6314239    0    0    0
        99   1   1    1.93753      0.000   23.6314795  31.4155329  23.6314239    0    0    0
       100   1   1    1.93753      0.000   31.4144146  31.4155329  23.6314239    0    0    0
       101   1   1    1.93753      0.000    0.2826740   0.2837923  31.4143591    0    0    0
       102   1   1    1.93753      0.000    8.0656092   0.2837923  31.4143591    0    0    0
       103   1   1    1.93753      0.000   15.8485443   0.2837923  31.4143591    0    0    0
       104   1   1    1.93753      0.000   23.6314795   0.2837923  31.4143591    0    0    0
       105   1   1    1.93753      0.000   31.4144146   0.2837923  31.4143591    0    0    0
       106   1   1    1.93753      0.000    0.2826740   8.0667275  31.4143591    0    0    0
       107   1   1    1.93753      0.000    8.0656092   8.0667275  31.4143591    0    0    0
       108   1   1    1.93753      0.000   15.8485443   8.0667275  31.4143591    0    0    0
       109   1   1    1.93753      0.000   23.6314795   8.0667275  31.4143591    0    0    0
       110   1   1    1.93753      0.000   31.4144146   8.0667275  31.4143591    0    0    0
       111   1   1    1.93753      0.000    0.2826740  15.8496626  31.4143591    0    0    0
       112   1   1    1.93753      0.000    8.0656092  15.8496626  31.4143591    0    0    0
       113   1   1    1.93753      0.000   15.8485443  15.8496626  31.4143591    0    0    0
       114   1   1    1.93753      0.000   23.6314795  15.8496626  31.4143591    0    0    0
       115   1   1    1.93753      0.000   31.4144146  15.8496626  31.4143591    0    0    0
       116   1   1    1.93753      0.000    0.2826740  23.6325977  31.4143591    0    0    0
       117   1   1    1.93753      0.000    8.0656092  23.6325977  31.4143591    0    0    0
       118   1   1    1.93753      0.000   15.8485443  23.6325977  31.4143591    0    0    0
       119   1   1    1.93753      0.000   23.6314795  23.6325977  31.4143591    0    0    0
       120   1   1    1.93753      0.000   31.4144146  23.6325977  31.4143591    0    0    0
       121   1   1    1.93753      0.000    0.2826740  31.4155329  31.4143591    0    0    0
       122   1   1    1.93753      0.000    8.0656092  31.4155329  31.4143591    0    0    0
       123   1   1    1.93753      0.000   15.8485443  31.4155329  31.4143591    0    0    0
       124   1   1    1.93753      0.000   23.6314795  31.4155329  31.4143591    0    0    0
       125   1   1    1.93753      0.000   31.4144146  31.4155329  31.4143591    0    0    0
       126   1   1    1.93753      0.000    4.1742971   0.2841679   0.2819992    0    0    0
       127   1   1    1.93753      0.000   11.9572322   0.2841679   0.2819992    0    0    0
       128   1   1    1.93753      0.000   19.7401674   0.2841679   0.2819992    0    0    0
       129   1   1    1.93753      0.000   27.5231025   0.2841679   0.2819992    0    0    0
       130   1   1    1.93753      0.000   35.3060377   0.2841679   0.2819992    0    0    0
       131   1   1    1.93753      0.000    4.1742971   8.0671030   0.2819992    0    0    0
       132   1   1    1.93753      0.000   11.9572322   8.0671030   0.2819992    0    0    0
       133   1   1    1.93753      0.000   19.7401674   8.0671030   0.2819992    0    0    0
       134   1   1    1.93753      0.000   27.5231025   8.0671030   0.2819992    0    0    0
       135   1   1    1.93753      0.000   35.3060377   8.0671030   0.2819992    0    0    0
       136   1   1    1.93753      0.000    4.1742971  15.8500382   0.2819992    0    0    0
       137   1   1    1.93753      0.000   11.9572322  15.8500382   0.2819992    0    0    0
       138   1   1    1.93753      0.000   19.7401674  15.8500382   0.2819992    0    0    0
       139   1   1    1.93753      0.000   27.5231025  15.8500382   0.2819992    0    0    0
       140   1   1    1.93753      0.000   35.3060377  15.8500382   0.2819992    0    0    0
       141   1   1    1.93753      0.000    4.1742971  23.6329733   0.2819992    0    0    0
       142   1   1    1.93753      0.000   11.9572322  23.6329733   0.2819992    0    0    0
       143   1   1    1.93753      0.000   19.7401674  23.6329733   0.2819992    0    0    0
       144   1   1    1.93753      0.000   27.5231025  23.6329733   0.2819992    0    0    0
       145   1   1    1.93753      0.000   35.3060377  23.6329733   0.2819992    0    0    0
       146   1   1    1.93753      0.000    4.1742971  31.4159084   0.2819992    0    0    0
       147   1   1    1.93753      0.000   11.9572322  31.4159084   0.2819992    0    0    0
       148   1   1    1.93753      0.000   19.7401674  31.4159084   0.2819992    0    0    0
       149   1   1    1.93753      0.000   27.5231025  31.4159084   0.2819992    0    0    0
       150   1   1    1.93753      0.000   35.3060377  31.4159084   0.2819992    0    0    0
       151   1   1    1.93753      0.000    4.1742971   0.2841679   8.0649343    0    0    0
       152   1   1    1.93753      0.000   11.9572322   0.2841679   8.0649343    0    0    0
       153   1   1    1.93753      0.000   19.7401674   0.2841679   8.0649343    0    0    0
       154   1   1    1.93753      0.000   27.5231025   0.2841679   8.0649343    0    0    0
       155   1   1    1.93753      0.000   35.3060377   0.2841679   8.0649343    0    0    0
       156   1   1    1.93753      0.000    4.1742971   8.0671030   8.0649343    0    0    0
       157   1   1    1.93753      0.000   11.9572322   8.0671030   8.0649343    0    0    0
       158   1   1    1.93753      0.000   19.7401674   8.0671030   8.0649343    0    0    0
       159   1   1    1.93753      0.000   27.5231025   8.0671030   8.0649343    0    0    0
       160   1   1    1.93753      0.000   35.3060377   8.0671030   8.0649343    0    0    0
       161   1   1    1.93753      0.000    4.1742971  15.8500382   8.0649343    0    0    0
       162   1   1    1.93753      0.000   11.9572322  15.8500382   8.0649343    0    0    0
       163   1   1    1.93753      0.000   19.7401674  15.8500382   8.0649343    0    0    0
       164   1   1    1.93753      0.000   27.5231025  15.8500382   8.0649343    0    0    0
       165   1   1    1.93753      0.000   35.3060377  15.8500382   8.0649343    0    0    0
       166   1   1    1.93753      0.000    4.1742971  23.6329733   8.0649343    0    0    0
       167   1   1    1.93753      0.000   11.9572322  23.6329733   8.0649343    0    0    0
       168   1   1    1.93753      0.000   19.7401674  23.6329733   8.0649343    0    0    0
       169   1   1    1.93753      0.000   27.5231025  23.6329733   8.0649343    0    0    0
       170   1   1    1.93753      0.000   35.3060377  23.6329733   8.0649343    0    0    0
       171   1   1    1.93753      0.000    4.1742971  31.4159084   8.0649343    0    0    0
       172   1   1    1.93753      0.000   11.9572322  31.4159084   8.0649343    0    0    0
       173   1   1    1.93753      0.000   19.7401674  31.4159084   8.0649343    0    0    0
       174   1   1    1.93753      0.000   27.5231025  31.4159084   8.0649343    0    0    0
       175   1   1    1.93753      0.000   35.3060377  31.4159084   8.0649343    0    0    0
       176   1   1    1.93753      0.000    4.1742971   0.2841679  15.8478695    0    0    0
       177   1   1    1.93753      0.000   11.9572322   0.2841679  15.8478695    0    0    0
       178   1   1    1.93753      0.000   19.7401674   0.2841679  15.8478695    0    0    0
       179   1   1    1.93753      0.000   27.5231025   0.2841679  15.8478695    0    0    0
       180   1   1    1.93753      0.000   35.3060377   0.2841679  15.8478695    0    0    0
       181   1   1    1.93753      0.000    4.1742971   8.0671030  15.8478695    0    0    0
       182   1   1    1.93753      0.000   11.9572322   8.0671030  15.8478695    0    0    0
       183   1   1    1.93753      0.000   19.7401674   8.0671030  15.8478695    0    0    0
       184   1   1    1.93753      0.000   27.5231025   8.0671030  15.8478695    0    0    0
       185   1   1    1.93753      0.000   35.3060377   8.0671030  15.8478695    0    0    0
       186   1   1    1.93753      0.000    4.1742971  15.8500382  15.8478695    0    0    0
       187   1   1    1.93753      0.000   11.9572322  15.8500382  15.8478695    0    0    0
       188   1   1    1.93753      0.000   19.7401674  15.8500382  15.8478695    0    0    0
       189   1   1    1.93753      0.000   27.5231025  15.8500382  15.8478695    0    0    0
       190   1   1    1.93753      0.000   35.3060377  15.8500382  15.8478695    0    0    0
       191   1   1    1.93753      0.000    4.1742971  23.6329733  15.8478695    0    0    0
       192   1   1    1.93753      0.000   11.9572322  23.6329733  15.8478695    0    0    0
       193   1   1    1.93753      0.000   19.7401674  23.6329733  15.8478695    0    0    0
       194   1   1    1.93753      0.000   27.5231025  23.6329733  15.8478695    0    0    0
       195   1   1    1.93753      0.000   35.3060377  23.6329733  15.8478695    0    0    0
       196   1   1    1.93753      0.000    4.1742971  31.4159084  15.8478695    0    0    0
       197   1   1    1.93753      0.000   11.9572322  31.4159084  15.8478695    0    0    0
       198   1   1    1.93753      0.000   19.7401674  31.4159084  15.8478695    0    0    0
       199   1   1    1.93753      0.000   27.5231025  31.4159084  15.8478695    0    0    0
       200   1   1    1.93753      0.000   35.3060377  31.4159084  15.8478695    0    0    0
       201   1   1    1.93753      0.000    4.1742971   0.2841679  23.6308046    0    0    0
       202   1   1    1.93753      0.000   11.9572322   0.2841679  23.6308046    0    0    0
       203   1   1    1.93753      0.000   19.7401674   0.2841679  23.6308046    0    0    0
       204   1   1    1.93753      0.000   27.5231025   0.2841679  23.6308046    0    0    0
       205   1   1    1.93753      0.000   35.3060377   0.2841679  23.6308046    0    0    0
       206   1   1    1.93753      0.000    4.1742971   8.0671030  23.6308046    0    0    0
       207   1   1    1.93753      0.000   11.9572322   8.0671030  23.6308046    0    0    0
       208   1   1    1.93753      0.000   19.7401674   8.0671030  23.6308046    0    0    0
       209   1   1    1.93753      0.000   27.5231025   8.0671030  23.6308046    0    0    0
       210   1   1    1.93753      0.000   35.3060377   8.0671030  23.6308046    0    0    0
       211   1   1    1.93753      0.000    4.1742971  15.8500382  23.6308046    0    0    0
       212   1   1    1.93753      0.000   11.9572322  15.8500382  23.6308046    0    0    0
       213   1   1    1.93753      0.000   19.7401674  15.8500382  23.6308046    0    0    0
       214   1   1    1.93753      0.000   27.5231025  15.8500382  23.6308046    0    0    0
       215   1   1    1.93753      0.000   35.3060377  15.8500382  23.6308046    0    0    0
       216   1   1    1.93753      0.000    4.1742971  23.6329733  23.6308046    0    0    0
       217   1   1    1.93753      0.000   11.9572322  23.6329733  23.6308046    0    0    0
       218   1   1    1.93753      0.000   19.7401674  23.6329733  23.6308046    0    0    0
       219   1   1    1.93753      0.000   27.5231025  23.6329733  23.6308046    0    0    0
       220   1   1    1.93753      0.000   35.3060377  23.6329733  23.6308046    0    0    0
       221   1   1    1.93753      0.000    4.1742971  31.4159084  23.6308046    0    0    0
       222   1   1    1.93753      0.000   11.9572322  31.4159084  23.6308046    0    0    0
       223   1   1    1.93753      0.000   19.7401674  31.4159084  23.6308046    0    0    0
       224   1   1    1.93753      0.000   27.5231025  31.4159084  23.6308046    0    0    0
       225   1   1    1.93753      0.000   35.3060377  31.4159084  23.6308046    0    0    0
       226   1   1    1.93753      0.000    4.1742971   0.2841679  31.4137398    0    0    0
       227   1   1    1.93753      0.000   11.9572322   0.2841679  31.4137398    0    0    0
       228   1   1    1.93753      0.000   19.7401674   0.2841679  31.4137398    0    0    0
       229   1   1    1.93753      0.000   27.5231025   0.2841679  31.4137398    0    0    0
       230   1   1    1.93753      0.000   35.3060377   0.2841679  31.4137398    0    0    0
       231   1   1    1.93753      0.000    4.1742971   8.0671030  31.4137398    0    0    0
       232   1   1    1.93753      0.000   11.9572322   8.0671030  31.4137398    0    0    0
       233   1   1    1.93753      0.000   19.7401674   8.0671030  31.4137398    0    0    0
       234   1   1    1.93753      0.000   27.5231025   8.0671030  31.4137398    0    0    0
       235   1   1    1.93753      0.000   35.3060377   8.0671030  31.4137398    0    0    0
       236   1   1    1.93753      0.000    4.1742971  15.8500382  31.4137398    0    0    0
       237   1   1    1.93753      0.000   11.9572322  15.8500382  31.4137398    0    0    0
       238   1   1    1.93753      0.000   19.7401674  15.8500382  31.4137398    0    0    0
       239   1   1    1.93753      0.000   27.5231025  15.8500382  31.4137398    0    0    0
       240   1   1    1.93753      0.000   35.3060377  15.8500382  31.4137398    0    0    0
       241   1   1    1.93753      0.000    4.1742971  23.6329733  31.4137398    0    0    0
       242   1   1    1.93753      0.000   11.9572322  23.6329733  31.4137398    0    0    0
       243   1   1    1.93753      0.000   19.7401674  23.6329733  31.4137398    0    0    0
       244   1   1    1.93753      0.000   27.5231025  23.6329733  31.4137398    0    0    0
       245   1   1    1.93753      0.000   35.3060377  23.6329733  31.4137398    0    0    0
       246   1   1    1.93753      0.000    4.1742971  31.4159084  31.4137398    0    0    0
       247   1   1    1.93753      0.000   11.9572322  31.4159084  31.4137398    0    0    0
       248   1   1    1.93753      0.000   19.7401674  31.4159084  31.4137398    0    0    0
       249   1   1    1.93753      0.000   27.5231025  31.4159084  31.4137398    0    0    0
       250   1   1    1.93753      0.000   35.3060377  31.4159084  31.4137398    0    0    0
       251   1   1    1.93753      0.000    0.2824613   4.1757862   0.2830271    0    0    0
       252   1   1    1.93753      0.000    8.0653965   4.1757862   0.2830271    0    0    0
       253   1   1    1.93753      0.000   15.8483316   4.1757862   0.2830271    0    0    0
       254   1   1    1.93753      0.000   23.6312668   4.1757862   0.2830271    0    0    0
       255   1   1    1.93753      0.000   31.4142019   4.1757862   0.2830271    0    0    0
       256   1   1    1.93753      0.000    0.2824613  11.9587213   0.2830271    0    0    0
       257   1   1    1.93753      0.000    8.0653965  11.9587213   0.2830271    0    0    0
       258   1   1    1.93753      0.000   15.8483316  11.9587213   0.2830271    0    0    0
       259   1   1    1.93753      0.000   23.6312668  11.9587213   0.2830271    0    0    0
       260   1   1    1.93753      0.000   31.4142019  11.9587213   0.2830271    0    0    0
       261   1   1    1.93753      0.000    0.2824613  19.7416565   0.2830271    0    0    0
       262   1   1    1.93753      0.000    8.0653965  19.7416565   0.2830271    0    0    0
       263   1   1    1.93753      0.000   15.8483316  19.7416565   0.2830271    0    0    0
       264   1   1    1.93753      0.000   23.6312668  19.7416565   0.2830271    0    0    0
       265   1   1    1.93753      0.000   31.4142019  19.7416565   0.2830271    0    0    0
       266   1   1    1.93753      0.000    0.2824613  27.5245916   0.2830271    0    0    0
       267   1   1    1.93753      0.000    8.0653965  27.5245916   0.2830271    0    0    0
       268   1   1    1.93753      0.000   15.8483316  27.5245916   0.2830271    0    0    0
       269   1   1    1.93753      0.000   23.6312668  27.5245916   0.2830271    0    0    0
       270   1   1    1.93753      0.000   31.4142019  27.5245916   0.2830271    0    0    0
       271   1   1    1.93753      0.000    0.2824613  35.3075268   0.2830271    0    0    0
       272   1   1    1.93753      0.000    8.0653965  35.3075268   0.2830271    0    0    0
       273   1   1    1.93753      0.000   15.8483316  35.3075268   0.2830271    0    0    0
       274   1   1    1.93753      0.000   23.6312668  35.3075268   0.2830271    0    0    0
       275   1   1    1.93753      0.000   31.4142019  35.3075268   0.2830271    0    0    0
       276   1   1    1.93753      0.000    0.2824613   4.1757862   8.0659623    0    0    0
       277   1   1    1.93753      0.000    8.0653965   4.1757862   8.0659623    0    0    0
       278   1   1    1.93753      0.000   15.8483316   4.1757862   8.0659623    0    0    0
       279   1   1    1.93753      0.000   23.6312668   4.1757862   8.0659623    0    0    0
       280   1   1    1.93753      0.000   31.4142019   4.1757862   8.0659623    0    0    0
       281   1   1    1.93753      0.000    0.2824613  11.9587213   8.0659623    0    0    0
       282   1   1    1.93753      0.000    8.0653965  11.9587213   8.0659623    0    0    0
       283   1   1    1.93753      0.000   15.8483316  11.9587213   8.0659623    0    0    0
       284   1   1    1.93753      0.000   23.6312668  11.9587213   8.0659623    0    0    0
       285   1   1    1.93753      0.000   31.4142019  11.9587213   8.0659623    0    0    0
       286   1   1    1.93753      0.000    0.2824613  19.7416565   8.0659623    0    0    0
       287   1   1    1.93753      0.000    8.0653965  19.7416565   8.0659623    0    0    0
       288   1   1    1.93753      0.000   15.8483316  19.7416565   8.0659623    0    0    0
       289   1   1    1.93753      0.000   23.6312668  19.7416565   8.0659623    0    0    0
       290   1   1    1.93753      0.000   31.4142019  19.7416565   8.0659623    0    0    0
       291   1   1    1.93753      0.000    0.2824613  27.5245916   8.0659623    0    0    0
       292   1   1    1.93753      0.000    8.0653965  27.5245916   8.0659623    0    0    0
       293   1   1    1.93753      0.000   15.8483316  27.5245916   8.0659623    0    0    0
       294   1   1    1.93753      0.000   23.6312668  27.5245916   8.0659623    0    0    0
       295   1   1    1.93753      0.000   31.4142019  27.5245916   8.0659623    0    0    0
       296   1   1    1.93753      0.000    0.2824613  35.3075268   8.0659623    0    0    0
       297   1   1    1.93753      0.000    8.0653965  35.3075268   8.0659623    0    0    0
       298   1   1    1.93753      0.000   15.8483316  35.3075268   8.0659623    0    0    0
       299   1   1    1.93753      0.000   23.6312668  35.3075268   8.0659623    0    0    0
       300   1   1    1.93753      0.000   31.4142019  35.3075268   8.0659623    0    0    0
       301   1   1    1.93753      0.000    0.2824613   4.1757862  15.8488974    0    0    0
       302   1   1    1.93753      0.000    8.0653965   4.1757862  15.8488974    0    0    0
       303   1   1    1.93753      0.000   15.8483316   4.1757862  15.8488974    0    0    0
       304   1   1    1.93753      0.000   23.6312668   4.1757862  15.8488974    0    0    0
       305   1   1    1.93753      0.000   31.4142019   4.1757862  15.8488974    0    0    0
       306   1   1    1.93753      0.000    0.2824613  11.9587213  15.8488974    0    0    0
       307   1   1    1.93753      0.000    8.0653965  11.9587213  15.8488974    0    0    0
       308   1   1    1.93753      0.000   15.8483316  11.9587213  15.8488974    0    0    0
       309   1   1    1.93753      0.000   23.6312668  11.9587213  15.8488974    0    0    0
       310   1   1    1.93753      0.000   31.4142019  11.9587213  15.8488974    0    0    0
       311   1   1    1.93753      0.000    0.2824613  19.7416565  15.8488974    0    0    0
       312   1   1    1.93753      0.000    8.0653965  19.7416565  15.8488974    0    0    0
       313   1   1    1.93753      0.000   15.8483316  19.7416565  15.8488974    0    0    0
       314   1   1    1.93753      0.000   23.6312668  19.7416565  15.8488974    0    0    0
       315   1   1    1.93753      0.000   31.4142019  19.7416565  15.8488974    0    0    0
       316   1   1    1.93753      0.000    0.2824613  27.5245916  15.8488974    0    0    0
       317   1   1    1.93753      0.000    8.0653965  27.5245916  15.8488974    0    0    0
       318   1   1    1.93753      0.000   15.8483316  27.5245916  15.8488974    0    0    0
       319   1   1    1.93753      0.000   23.6312668  27.5245916  15.8488974    0    0    0