 #LAMMPS ABO3 domain
   
      320 atoms
      192 angles
 3  atom types
 1 angle types
   
 0.0    15.56587  xlo xhi
 0.0    15.56587  ylo yhi
 0.0    15.56587  zlo zhi
   
 Masses
   
 1   208.98039
 2    55.84500
 3    15.99940
  
   
 Atoms
   
         1   1   1    1.93753      0.000    0.2826740   0.2837923   0.2826185    0    0    0
         2   1   1    1.93753      0.000    8.0656092   0.2837923   0.2826185    0    0    0
         3   1   1    1.93753      0.000    0.2826740   8.0667275   0.2826185    0    0    0
         4   1   1    1.93753      0.000    8.0656092   8.0667275   0.2826185    0    0    0
         5   1   1    1.93753      0.000    0.2826740   0.2837923   8.0655536    0    0    0
         6   1   1    1.93753      0.000    8.0656092   0.2837923   8.0655536    0    0    0
         7   1   1    1.93753      0.000    0.2826740   8.0667275   8.0655536    0    0    0
         8   1   1    1.93753      0.000    8.0656092   8.0667275   8.0655536    0    0    0
         9   1   1    1.93753      0.000    4.1742971   0.2841679   0.2819992    0    0    0
        10   1   1    1.93753      0.000   11.9572322   0.2841679   0.2819992    0    0    0
        11   1   1    1.93753      0.000    4.1742971   8.0671030   0.2819992    0    0    0
        12   1   1    1.93753      0.000   11.9572322   8.0671030   0.2819992    0    0    0
        13   1   1    1.93753      0.000    4.1742971   0.2841679   8.0649343    0    0    0
        14   1   1    1.93753      0.000   11.9572322   0.2841679   8.0649343    0    0    0
        15   1   1    1.93753      0.000    4.1742971   8.0671030   8.0649343    0    0    0
        16   1   1    1.93753      0.000   11.9572322   8.0671030   8.0649343    0    0    0
        17   1   1    1.93753      0.000    0.2824613   4.1757862   0.2830271    0    0    0
        18   1   1    1.93753      0.000    8.0653965   4.1757862   0.2830271    0    0    0
        19   1   1    1.93753      0.000    0.2824613  11.9587213   0.2830271    0    0    0
        20   1   1    1.93753      0.000    8.0653965  11.9587213   0.2830271    0    0    0
        21   1   1    1.93753      0.000    0.2824613   4.1757862   8.0659623    0    0    0
        22   1   1    1.93753      0.000    8.0653965   4.1757862   8.0659623    0    0    0
        23   1   1    1.93753      0.000    0.2824613  11.9587213   8.0659623    0    0    0
        24   1   1    1.93753      0.000    8.0653965  11.9587213   8.0659623    0    0    0
        25   1   1    1.93753      0.000    4.1743155   4.1758263   0.2824989    0    0    0
        26   1   1    1.93753      0.000   11.9572506   4.1758263   0.2824989    0    0    0
        27   1   1    1.93753      0.000    4.1743155  11.9587614   0.2824989    0    0    0
        28   1   1    1.93753      0.000   11.9572506  11.9587614   0.2824989    0    0    0
        29   1   1    1.93753      0.000    4.1743155   4.1758263   8.0654340    0    0    0
        30   1   1    1.93753      0.000   11.9572506   4.1758263   8.0654340    0    0    0
        31   1   1    1.93753      0.000    4.1743155  11.9587614   8.0654340    0    0    0
        32   1   1    1.93753      0.000   11.9572506  11.9587614   8.0654340    0    0    0
        33   1   1    1.93753      0.000    0.2826981   0.2841417   4.1735266    0    0    0
        34   1   1    1.93753      0.000    8.0656332   0.2841417   4.1735266    0    0    0
        35   1   1    1.93753      0.000    0.2826981   8.0670769   4.1735266    0    0    0
        36   1   1    1.93753      0.000    8.0656332   8.0670769   4.1735266    0    0    0
        37   1   1    1.93753      0.000    0.2826981   0.2841417  11.9564617    0    0    0
        38   1   1    1.93753      0.000    8.0656332   0.2841417  11.9564617    0    0    0
        39   1   1    1.93753      0.000    0.2826981   8.0670769  11.9564617    0    0    0
        40   1   1    1.93753      0.000    8.0656332   8.0670769  11.9564617    0    0    0
        41   1   1    1.93753      0.000    4.1742115   0.2837862   4.1741231    0    0    0
        42   1   1    1.93753      0.000   11.9571466   0.2837862   4.1741231    0    0    0
        43   1   1    1.93753      0.000    4.1742115   8.0667213   4.1741231    0    0    0
        44   1   1    1.93753      0.000   11.9571466   8.0667213   4.1741231    0    0    0
        45   1   1    1.93753      0.000    4.1742115   0.2837862  11.9570583    0    0    0
        46   1   1    1.93753      0.000   11.9571466   0.2837862  11.9570583    0    0    0
        47   1   1    1.93753      0.000    4.1742115   8.0667213  11.9570583    0    0    0
        48   1   1    1.93753      0.000   11.9571466   8.0667213  11.9570583    0    0    0
        49   1   1    1.93753      0.000    0.2828391   4.1759338   4.1738240    0    0    0
        50   1   1    1.93753      0.000    8.0657743   4.1759338   4.1738240    0    0    0
        51   1   1    1.93753      0.000    0.2828391  11.9588689   4.1738240    0    0    0
        52   1   1    1.93753      0.000    8.0657743  11.9588689   4.1738240    0    0    0
        53   1   1    1.93753      0.000    0.2828391   4.1759338  11.9567592    0    0    0
        54   1   1    1.93753      0.000    8.0657743   4.1759338  11.9567592    0    0    0
        55   1   1    1.93753      0.000    0.2828391  11.9588689  11.9567592    0    0    0
        56   1   1    1.93753      0.000    8.0657743  11.9588689  11.9567592    0    0    0
        57   1   1    1.93753      0.000    4.1738983   4.1758277   4.1744695    0    0    0
        58   1   1    1.93753      0.000   11.9568334   4.1758277   4.1744695    0    0    0
        59   1   1    1.93753      0.000    4.1738983  11.9587628   4.1744695    0    0    0
        60   1   1    1.93753      0.000   11.9568334  11.9587628   4.1744695    0    0    0
        61   1   1    1.93753      0.000    4.1738983   4.1758277  11.9574047    0    0    0
        62   1   1    1.93753      0.000   11.9568334   4.1758277  11.9574047    0    0    0
        63   1   1    1.93753      0.000    4.1738983  11.9587628  11.9574047    0    0    0
        64   1   1    1.93753      0.000   11.9568334  11.9587628  11.9574047    0    0    0
        65   1   2    1.77706      2.500    2.0509020   2.0521014   2.0504195    0    0   -1
        66   1   2    1.77706      2.500    9.8338372   2.0521014   2.0504195    0    0   -1
        67   1   2    1.77706      2.500    2.0509020   9.8350365   2.0504195    0    0   -1
        68   1   2    1.77706      2.500    9.8338372   9.8350365   2.0504195    0    0   -1
        69   1   2    1.77706      2.500    2.0509020   2.0521014   9.8333546    0    0   -1
        70   1   2    1.77706      2.500    9.8338372   2.0521014   9.8333546    0    0   -1
        71   1   2    1.77706      2.500    2.0509020   9.8350365   9.8333546    0    0   -1
        72   1   2    1.77706      2.500    9.8338372   9.8350365   9.8333546    0    0   -1
        73   1   2    1.77706      2.500    5.9421294   2.0521079   2.0505711    0    0    1
        74   1   2    1.77706      2.500   13.7250645   2.0521079   2.0505711    0    0    1
        75   1   2    1.77706      2.500    5.9421294   9.8350430   2.0505711    0    0    1
        76   1   2    1.77706      2.500   13.7250645   9.8350430   2.0505711    0    0    1
        77   1   2    1.77706      2.500    5.9421294   2.0521079   9.8335063    0    0    1
        78   1   2    1.77706      2.500   13.7250645   2.0521079   9.8335063    0    0    1
        79   1   2    1.77706      2.500    5.9421294   9.8350430   9.8335063    0    0    1
        80   1   2    1.77706      2.500   13.7250645   9.8350430   9.8335063    0    0    1
        81   1   2    1.77706      2.500    2.0510236   5.9437897   2.0509279    0    0    1
        82   1   2    1.77706      2.500    9.8339588   5.9437897   2.0509279    0    0    1
        83   1   2    1.77706      2.500    2.0510236  13.7267249   2.0509279    0    0    1
        84   1   2    1.77706      2.500    9.8339588  13.7267249   2.0509279    0    0    1
        85   1   2    1.77706      2.500    2.0510236   5.9437897   9.8338631    0    0    1
        86   1   2    1.77706      2.500    9.8339588   5.9437897   9.8338631    0    0    1
        87   1   2    1.77706      2.500    2.0510236  13.7267249   9.8338631    0    0    1
        88   1   2    1.77706      2.500    9.8339588  13.7267249   9.8338631    0    0    1
        89   1   2    1.77706      2.500    5.9420348   5.9438775   2.0511051    0    0   -1
        90   1   2    1.77706      2.500   13.7249699   5.9438775   2.0511051    0    0   -1
        91   1   2    1.77706      2.500    5.9420348  13.7268127   2.0511051    0    0   -1
        92   1   2    1.77706      2.500   13.7249699  13.7268127   2.0511051    0    0   -1
        93   1   2    1.77706      2.500    5.9420348   5.9438775   9.8340403    0    0   -1
        94   1   2    1.77706      2.500   13.7249699   5.9438775   9.8340403    0    0   -1
        95   1   2    1.77706      2.500    5.9420348  13.7268127   9.8340403    0    0   -1
        96   1   2    1.77706      2.500   13.7249699  13.7268127   9.8340403    0    0   -1
        97   1   2    1.77706      2.500    2.0505864   2.0521195   5.9419795    0    0    1
        98   1   2    1.77706      2.500    9.8335216   2.0521195   5.9419795    0    0    1
        99   1   2    1.77706      2.500    2.0505864   9.8350547   5.9419795    0    0    1
       100   1   2    1.77706      2.500    9.8335216   9.8350547   5.9419795    0    0    1
       101   1   2    1.77706      2.500    2.0505864   2.0521195  13.7249146    0    0    1
       102   1   2    1.77706      2.500    9.8335216   2.0521195  13.7249146    0    0    1
       103   1   2    1.77706      2.500    2.0505864   9.8350547  13.7249146    0    0    1
       104   1   2    1.77706      2.500    9.8335216   9.8350547  13.7249146    0    0    1
       105   1   2    1.77706      2.500    5.9423637   2.0522047   5.9418927    0    0   -1
       106   1   2    1.77706      2.500   13.7252989   2.0522047   5.9418927    0    0   -1
       107   1   2    1.77706      2.500    5.9423637   9.8351399   5.9418927    0    0   -1
       108   1   2    1.77706      2.500   13.7252989   9.8351399   5.9418927    0    0   -1
       109   1   2    1.77706      2.500    5.9423637   2.0522047  13.7248278    0    0   -1
       110   1   2    1.77706      2.500   13.7252989   2.0522047  13.7248278    0    0   -1
       111   1   2    1.77706      2.500    5.9423637   9.8351399  13.7248278    0    0   -1
       112   1   2    1.77706      2.500   13.7252989   9.8351399  13.7248278    0    0   -1
       113   1   2    1.77706      2.500    2.0505413   5.9438865   5.9425532    0    0   -1
       114   1   2    1.77706      2.500    9.8334764   5.9438865   5.9425532    0    0   -1
       115   1   2    1.77706      2.500    2.0505413  13.7268217   5.9425532    0    0   -1
       116   1   2    1.77706      2.500    9.8334764  13.7268217   5.9425532    0    0   -1
       117   1   2    1.77706      2.500    2.0505413   5.9438865  13.7254883    0    0   -1
       118   1   2    1.77706      2.500    9.8334764   5.9438865  13.7254883    0    0   -1
       119   1   2    1.77706      2.500    2.0505413  13.7268217  13.7254883    0    0   -1
       120   1   2    1.77706      2.500    9.8334764  13.7268217  13.7254883    0    0   -1
       121   1   2    1.77706      2.500    5.9424883   5.9437550   5.9424756    0    0    1
       122   1   2    1.77706      2.500   13.7254234   5.9437550   5.9424756    0    0    1
       123   1   2    1.77706      2.500    5.9424883  13.7266902   5.9424756    0    0    1
       124   1   2    1.77706      2.500   13.7254234  13.7266902   5.9424756    0    0    1
       125   1   2    1.77706      2.500    5.9424883   5.9437550  13.7254107    0    0    1
       126   1   2    1.77706      2.500   13.7254234   5.9437550  13.7254107    0    0    1
       127   1   2    1.77706      2.500    5.9424883  13.7266902  13.7254107    0    0    1
       128   1   2    1.77706      2.500   13.7254234  13.7266902  13.7254107    0    0    1
       129   1   3   -1.23820      0.000    1.6075196   2.1569253   0.0389940    0    0    0
       130   1   3   -1.23820      0.000    9.3904547   2.1569253   0.0389940    0    0    0
       131   1   3   -1.23820      0.000    1.6075196   9.9398605   0.0389940    0    0    0
       132   1   3   -1.23820      0.000    9.3904547   9.9398605   0.0389940    0    0    0
       133   1   3   -1.23820      0.000    1.6075196   2.1569253   7.8219291    0    0    0
       134   1   3   -1.23820      0.000    9.3904547   2.1569253   7.8219291    0    0    0
       135   1   3   -1.23820      0.000    1.6075196   9.9398605   7.8219291    0    0    0
       136   1   3   -1.23820      0.000    9.3904547   9.9398605   7.8219291    0    0    0
       137   1   3   -1.23820      0.000    6.0475694   1.6096861   0.0389864    0    0    0
       138   1   3   -1.23820      0.000   13.8305046   1.6096861   0.0389864    0    0    0
       139   1   3   -1.23820      0.000    6.0475694   9.3926212   0.0389864    0    0    0
       140   1   3   -1.23820      0.000   13.8305046   9.3926212   0.0389864    0    0    0
       141   1   3   -1.23820      0.000    6.0475694   1.6096861   7.8219216    0    0    0
       142   1   3   -1.23820      0.000   13.8305046   1.6096861   7.8219216    0    0    0
       143   1   3   -1.23820      0.000    6.0475694   9.3926212   7.8219216    0    0    0
       144   1   3   -1.23820      0.000   13.8305046   9.3926212   7.8219216    0    0    0
       145   1   3   -1.23820      0.000    2.1550420   5.5014739   0.0396191    0    0    0
       146   1   3   -1.23820      0.000    9.9379772   5.5014739   0.0396191    0    0    0
       147   1   3   -1.23820      0.000    2.1550420  13.2844091   0.0396191    0    0    0
       148   1   3   -1.23820      0.000    9.9379772  13.2844091   0.0396191    0    0    0
       149   1   3   -1.23820      0.000    2.1550420   5.5014739   7.8225543    0    0    0
       150   1   3   -1.23820      0.000    9.9379772   5.5014739   7.8225543    0    0    0
       151   1   3   -1.23820      0.000    2.1550420  13.2844091   7.8225543    0    0    0
       152   1   3   -1.23820      0.000    9.9379772  13.2844091   7.8225543    0    0    0
       153   1   3   -1.23820      0.000    5.5006711   6.0485358   0.0396660    0    0    0
       154   1   3   -1.23820      0.000   13.2836062   6.0485358   0.0396660    0    0    0
       155   1   3   -1.23820      0.000    5.5006711  13.8314709   0.0396660    0    0    0
       156   1   3   -1.23820      0.000   13.2836062  13.8314709   0.0396660    0    0    0
       157   1   3   -1.23820      0.000    5.5006711   6.0485358   7.8226011    0    0    0
       158   1   3   -1.23820      0.000   13.2836062   6.0485358   7.8226011    0    0    0
       159   1   3   -1.23820      0.000    5.5006711  13.8314709   7.8226011    0    0    0
       160   1   3   -1.23820      0.000   13.2836062  13.8314709   7.8226011    0    0    0
       161   1   3   -1.23820      0.000    2.1560737   1.6093431   3.9304464    0    0    0
       162   1   3   -1.23820      0.000    9.9390088   1.6093431   3.9304464    0    0    0
       163   1   3   -1.23820      0.000    2.1560737   9.3922782   3.9304464    0    0    0
       164   1   3   -1.23820      0.000    9.9390088   9.3922782   3.9304464    0    0    0
       165   1   3   -1.23820      0.000    2.1560737   1.6093431  11.7133815    0    0    0
       166   1   3   -1.23820      0.000    9.9390088   1.6093431  11.7133815    0    0    0
       167   1   3   -1.23820      0.000    2.1560737   9.3922782  11.7133815    0    0    0
       168   1   3   -1.23820      0.000    9.9390088   9.3922782  11.7133815    0    0    0
       169   1   3   -1.23820      0.000    5.4990170   2.1568617   3.9305107    0    0    0
       170   1   3   -1.23820      0.000   13.2819521   2.1568617   3.9305107    0    0    0
       171   1   3   -1.23820      0.000    5.4990170   9.9397968   3.9305107    0    0    0
       172   1   3   -1.23820      0.000   13.2819521   9.9397968   3.9305107    0    0    0
       173   1   3   -1.23820      0.000    5.4990170   2.1568617  11.7134458    0    0    0
       174   1   3   -1.23820      0.000   13.2819521   2.1568617  11.7134458    0    0    0
       175   1   3   -1.23820      0.000    5.4990170   9.9397968  11.7134458    0    0    0
       176   1   3   -1.23820      0.000   13.2819521   9.9397968  11.7134458    0    0    0
       177   1   3   -1.23820      0.000    1.6091650   6.0487129   3.9310632    0    0    0
       178   1   3   -1.23820      0.000    9.3921001   6.0487129   3.9310632    0    0    0
       179   1   3   -1.23820      0.000    1.6091650  13.8316481   3.9310632    0    0    0
       180   1   3   -1.23820      0.000    9.3921001  13.8316481   3.9310632    0    0    0
       181   1   3   -1.23820      0.000    1.6091650   6.0487129  11.7139983    0    0    0
       182   1   3   -1.23820      0.000    9.3921001   6.0487129  11.7139983    0    0    0
       183   1   3   -1.23820      0.000    1.6091650  13.8316481  11.7139983    0    0    0
       184   1   3   -1.23820      0.000    9.3921001  13.8316481  11.7139983    0    0    0
       185   1   3   -1.23820      0.000    6.0465016   5.5016734   3.9311575    0    0    0
       186   1   3   -1.23820      0.000   13.8294367   5.5016734   3.9311575    0    0    0
       187   1   3   -1.23820      0.000    6.0465016  13.2846085   3.9311575    0    0    0
       188   1   3   -1.23820      0.000   13.8294367  13.2846085   3.9311575    0    0    0
       189   1   3   -1.23820      0.000    6.0465016   5.5016734  11.7140926    0    0    0
       190   1   3   -1.23820      0.000   13.8294367   5.5016734  11.7140926    0    0    0
       191   1   3   -1.23820      0.000    6.0465016  13.2846085  11.7140926    0    0    0
       192   1   3   -1.23820      0.000   13.8294367  13.2846085  11.7140926    0    0    0
       193   1   3   -1.23820      0.000    2.1557461   0.0408406   1.6080979    0    0    0
       194   1   3   -1.23820      0.000    9.9386813   0.0408406   1.6080979    0    0    0
       195   1   3   -1.23820      0.000    2.1557461   7.8237758   1.6080979    0    0    0
       196   1   3   -1.23820      0.000    9.9386813   7.8237758   1.6080979    0    0    0
       197   1   3   -1.23820      0.000    2.1557461   0.0408406   9.3910330    0    0    0
       198   1   3   -1.23820      0.000    9.9386813   0.0408406   9.3910330    0    0    0
       199   1   3   -1.23820      0.000    2.1557461   7.8237758   9.3910330    0    0    0
       200   1   3   -1.23820      0.000    9.9386813   7.8237758   9.3910330    0    0    0
       201   1   3   -1.23820      0.000    5.4996319   0.0409898   2.1555789    0    0    0
       202   1   3   -1.23820      0.000   13.2825670   0.0409898   2.1555789    0    0    0
       203   1   3   -1.23820      0.000    5.4996319   7.8239250   2.1555789    0    0    0
       204   1   3   -1.23820      0.000   13.2825670   7.8239250   2.1555789    0    0    0
       205   1   3   -1.23820      0.000    5.4996319   0.0409898   9.9385140    0    0    0
       206   1   3   -1.23820      0.000   13.2825670   0.0409898   9.9385140    0    0    0
       207   1   3   -1.23820      0.000    5.4996319   7.8239250   9.9385140    0    0    0
       208   1   3   -1.23820      0.000   13.2825670   7.8239250   9.9385140    0    0    0
       209   1   3   -1.23820      0.000    1.6087971   3.9320610   2.1557409    0    0    0
       210   1   3   -1.23820      0.000    9.3917323   3.9320610   2.1557409    0    0    0
       211   1   3   -1.23820      0.000    1.6087971  11.7149961   2.1557409    0    0    0
       212   1   3   -1.23820      0.000    9.3917323  11.7149961   2.1557409    0    0    0
       213   1   3   -1.23820      0.000    1.6087971   3.9320610   9.9386760    0    0    0
       214   1   3   -1.23820      0.000    9.3917323   3.9320610   9.9386760    0    0    0
       215   1   3   -1.23820      0.000    1.6087971  11.7149961   9.9386760    0    0    0
       216   1   3   -1.23820      0.000    9.3917323  11.7149961   9.9386760    0    0    0
       217   1   3   -1.23820      0.000    6.0466619   3.9321583   1.6086287    0    0    0
       218   1   3   -1.23820      0.000   13.8295970   3.9321583   1.6086287    0    0    0
       219   1   3   -1.23820      0.000    6.0466619  11.7150935   1.6086287    0    0    0
       220   1   3   -1.23820      0.000   13.8295970  11.7150935   1.6086287    0    0    0
       221   1   3   -1.23820      0.000    6.0466619   3.9321583   9.3915638    0    0    0
       222   1   3   -1.23820      0.000   13.8295970   3.9321583   9.3915638    0    0    0
       223   1   3   -1.23820      0.000    6.0466619  11.7150935   9.3915638    0    0    0
       224   1   3   -1.23820      0.000   13.8295970  11.7150935   9.3915638    0    0    0
       225   1   3   -1.23820      0.000    1.6079986   0.0409801   6.0471420    0    0    0
       226   1   3   -1.23820      0.000    9.3909337   0.0409801   6.0471420    0    0    0
       227   1   3   -1.23820      0.000    1.6079986   7.8239153   6.0471420    0    0    0
       228   1   3   -1.23820      0.000    9.3909337   7.8239153   6.0471420    0    0    0
       229   1   3   -1.23820      0.000    1.6079986   0.0409801  13.8300772    0    0    0
       230   1   3   -1.23820      0.000    9.3909337   0.0409801  13.8300772    0    0    0
       231   1   3   -1.23820      0.000    1.6079986   7.8239153  13.8300772    0    0    0
       232   1   3   -1.23820      0.000    9.3909337   7.8239153  13.8300772    0    0    0
       233   1   3   -1.23820      0.000    6.0471909   0.0408946   5.4999236    0    0    0
       234   1   3   -1.23820      0.000   13.8301260   0.0408946   5.4999236    0    0    0
       235   1   3   -1.23820      0.000    6.0471909   7.8238298   5.4999236    0    0    0
       236   1   3   -1.23820      0.000   13.8301260   7.8238298   5.4999236    0    0    0
       237   1   3   -1.23820      0.000    6.0471909   0.0408946  13.2828588    0    0    0
       238   1   3   -1.23820      0.000   13.8301260   0.0408946  13.2828588    0    0    0
       239   1   3   -1.23820      0.000    6.0471909   7.8238298  13.2828588    0    0    0
       240   1   3   -1.23820      0.000   13.8301260   7.8238298  13.2828588    0    0    0
       241   1   3   -1.23820      0.000    2.1552184   3.9321772   5.4998202    0    0    0
       242   1   3   -1.23820      0.000    9.9381535   3.9321772   5.4998202    0    0    0
       243   1   3   -1.23820      0.000    2.1552184  11.7151123   5.4998202    0    0    0
       244   1   3   -1.23820      0.000    9.9381535  11.7151123   5.4998202    0    0    0
       245   1   3   -1.23820      0.000    2.1552184   3.9321772  13.2827554    0    0    0
       246   1   3   -1.23820      0.000    9.9381535   3.9321772  13.2827554    0    0    0
       247   1   3   -1.23820      0.000    2.1552184  11.7151123  13.2827554    0    0    0
       248   1   3   -1.23820      0.000    9.9381535  11.7151123  13.2827554    0    0    0
       249   1   3   -1.23820      0.000    5.5001114   3.9320979   6.0471716    0    0    0
       250   1   3   -1.23820      0.000   13.2830465   3.9320979   6.0471716    0    0    0
       251   1   3   -1.23820      0.000    5.5001114  11.7150330   6.0471716    0    0    0
       252   1   3   -1.23820      0.000   13.2830465  11.7150330   6.0471716    0    0    0
       253   1   3   -1.23820      0.000    5.5001114   3.9320979  13.8301067    0    0    0
       254   1   3   -1.23820      0.000   13.2830465   3.9320979  13.8301067    0    0    0
       255   1   3   -1.23820      0.000    5.5001114  11.7150330  13.8301067    0    0    0
       256   1   3   -1.23820      0.000   13.2830465  11.7150330  13.8301067    0    0    0
       257   1   3   -1.23820      0.000    0.0393299   1.6098803   2.1556639    0    0    0
       258   1   3   -1.23820      0.000    7.8222650   1.6098803   2.1556639    0    0    0
       259   1   3   -1.23820      0.000    0.0393299   9.3928155   2.1556639    0    0    0
       260   1   3   -1.23820      0.000    7.8222650   9.3928155   2.1556639    0    0    0
       261   1   3   -1.23820      0.000    0.0393299   1.6098803   9.9385990    0    0    0
       262   1   3   -1.23820      0.000    7.8222650   1.6098803   9.9385990    0    0    0
       263   1   3   -1.23820      0.000    0.0393299   9.3928155   9.9385990    0    0    0
       264   1   3   -1.23820      0.000    7.8222650   9.3928155   9.9385990    0    0    0
       265   1   3   -1.23820      0.000    3.9307736   2.1570270   1.6070905    0    0    0
       266   1   3   -1.23820      0.000   11.7137087   2.1570270   1.6070905    0    0    0
       267   1   3   -1.23820      0.000    3.9307736   9.9399621   1.6070905    0    0    0
       268   1   3   -1.23820      0.000   11.7137087   9.9399621   1.6070905    0    0    0
       269   1   3   -1.23820      0.000    3.9307736   2.1570270   9.3900256    0    0    0
       270   1   3   -1.23820      0.000   11.7137087   2.1570270   9.3900256    0    0    0
       271   1   3   -1.23820      0.000    3.9307736   9.9399621   9.3900256    0    0    0
       272   1   3   -1.23820      0.000   11.7137087   9.9399621   9.3900256    0    0    0
       273   1   3   -1.23820      0.000    0.0393342   6.0481928   1.6097467    0    0    0
       274   1   3   -1.23820      0.000    7.8222693   6.0481928   1.6097467    0    0    0
       275   1   3   -1.23820      0.000    0.0393342  13.8311280   1.6097467    0    0    0
       276   1   3   -1.23820      0.000    7.8222693  13.8311280   1.6097467    0    0    0
       277   1   3   -1.23820      0.000    0.0393342   6.0481928   9.3926818    0    0    0
       278   1   3   -1.23820      0.000    7.8222693   6.0481928   9.3926818    0    0    0
       279   1   3   -1.23820      0.000    0.0393342  13.8311280   9.3926818    0    0    0
       280   1   3   -1.23820      0.000    7.8222693  13.8311280   9.3926818    0    0    0
       281   1   3   -1.23820      0.000    3.9308841   5.5013421   2.1556763    0    0    0
       282   1   3   -1.23820      0.000   11.7138192   5.5013421   2.1556763    0    0    0
       283   1   3   -1.23820      0.000    3.9308841  13.2842772   2.1556763    0    0    0
       284   1   3   -1.23820      0.000   11.7138192  13.2842772   2.1556763    0    0    0
       285   1   3   -1.23820      0.000    3.9308841   5.5013421   9.9386115    0    0    0
       286   1   3   -1.23820      0.000   11.7138192   5.5013421   9.9386115    0    0    0
       287   1   3   -1.23820      0.000    3.9308841  13.2842772   9.9386115    0    0    0
       288   1   3   -1.23820      0.000   11.7138192  13.2842772   9.9386115    0    0    0
       289   1   3   -1.23820      0.000    0.0392962   2.1572004   5.4984759    0    0    0
       290   1   3   -1.23820      0.000    7.8222314   2.1572004   5.4984759    0    0    0
       291   1   3   -1.23820      0.000    0.0392962   9.9401356   5.4984759    0    0    0
       292   1   3   -1.23820      0.000    7.8222314   9.9401356   5.4984759    0    0    0
       293   1   3   -1.23820      0.000    0.0392962   2.1572004  13.2814111    0    0    0
       294   1   3   -1.23820      0.000    7.8222314   2.1572004  13.2814111    0    0    0
       295   1   3   -1.23820      0.000    0.0392962   9.9401356  13.2814111    0    0    0
       296   1   3   -1.23820      0.000    7.8222314   9.9401356  13.2814111    0    0    0
       297   1   3   -1.23820      0.000    3.9307260   1.6099474   6.0470861    0    0    0
       298   1   3   -1.23820      0.000   11.7136612   1.6099474   6.0470861    0    0    0
       299   1   3   -1.23820      0.000    3.9307260   9.3928826   6.0470861    0    0    0
       300   1   3   -1.23820      0.000   11.7136612   9.3928826   6.0470861    0    0    0
       301   1   3   -1.23820      0.000    3.9307260   1.6099474  13.8300212    0    0    0
       302   1   3   -1.23820      0.000   11.7136612   1.6099474  13.8300212    0    0    0
       303   1   3   -1.23820      0.000    3.9307260   9.3928826  13.8300212    0    0    0
       304   1   3   -1.23820      0.000   11.7136612   9.3928826  13.8300212    0    0    0
       305   1   3   -1.23820      0.000    0.0394323   5.5012403   6.0471548    0    0    0
       306   1   3   -1.23820      0.000    7.8223674   5.5012403   6.0471548    0    0    0
       307   1   3   -1.23820      0.000    0.0394323  13.2841754   6.0471548    0    0    0
       308   1   3   -1.23820      0.000    7.8223674  13.2841754   6.0471548    0    0    0
       309   1   3   -1.23820      0.000    0.0394323   5.5012403  13.8300900    0    0    0
       310   1   3   -1.23820      0.000    7.8223674   5.5012403  13.8300900    0    0    0
       311   1   3   -1.23820      0.000    0.0394323  13.2841754  13.8300900    0    0    0
       312   1   3   -1.23820      0.000    7.8223674  13.2841754  13.8300900    0    0    0
       313   1   3   -1.23820      0.000    3.9307591   6.0482403   5.5012372    0    0    0
       314   1   3   -1.23820      0.000   11.7136943   6.0482403   5.5012372    0    0    0
       315   1   3   -1.23820      0.000    3.9307591  13.8311754   5.5012372    0    0    0
       316   1   3   -1.23820      0.000   11.7136943  13.8311754   5.5012372    0    0    0
       317   1   3   -1.23820      0.000    3.9307591   6.0482403  13.2841723    0    0    0
       318   1   3   -1.23820      0.000   11.7136943   6.0482403  13.2841723    0    0    0
       319   1   3   -1.23820      0.000    3.9307591  13.8311754  13.2841723    0    0    0