 #Pb Ti O
 CRYSTAL
 PRIMVEC
   56.56854153   0.00000000   0.00000000
    0.00000000  11.31370831   0.00000000
    0.00000000   0.00000000  16.00000000
 CONVVEC
   56.56854153   0.00000000   0.00000000
    0.00000000  11.31370831   0.00000000
    0.00000000   0.00000000  16.00000000
 PRIMCOORD
         800 1
    82   0.00000000   0.44907311   0.31754270   0.00000000   0.00000000   0.00000000
    82   5.65685415   0.44907311   0.31754270   0.00000000   0.00000000   0.00000000
    82  11.31370831   0.44907311   0.31754270   0.00000000   0.00000000   0.00000000
    82  16.97056198   0.44907311   0.31754270   0.00000000   0.00000000   0.00000000
    82  22.62741661   0.44907311   0.31754270   0.00000000   0.00000000   0.00000000
    82  28.28427124   0.44907311  -0.31754270   0.00000000   0.00000000   0.00000000
    82  33.94112396   0.44907311  -0.31754270   0.00000000   0.00000000   0.00000000
    82  39.59798050   0.44907311  -0.31754270   0.00000000   0.00000000   0.00000000
    82  45.25483322   0.44907311  -0.31754270   0.00000000   0.00000000   0.00000000
    82  50.91168594   0.44907311  -0.31754270   0.00000000   0.00000000   0.00000000
    82   0.00000000   6.10592747   0.31754270   0.00000000   0.00000000   0.00000000
    82   5.65685415   6.10592747   0.31754270   0.00000000   0.00000000   0.00000000
    82  11.31370831   6.10592747   0.31754270   0.00000000   0.00000000   0.00000000
    82  16.97056198   6.10592747   0.31754270   0.00000000   0.00000000   0.00000000
    82  22.62741661   6.10592747   0.31754270   0.00000000   0.00000000   0.00000000
    82  28.28427124   6.10592747  -0.31754270   0.00000000   0.00000000   0.00000000
    82  33.94112396   6.10592747  -0.31754270   0.00000000   0.00000000   0.00000000
    82  39.59798050   6.10592747  -0.31754270   0.00000000   0.00000000   0.00000000
    82  45.25483322   6.10592747  -0.31754270   0.00000000   0.00000000   0.00000000
    82  50.91168594   6.10592747  -0.31754270   0.00000000   0.00000000   0.00000000
    82   0.00000000   0.44907311   4.31754255   0.00000000   0.00000000   0.00000000
    82   5.65685415   0.44907311   4.31754255   0.00000000   0.00000000   0.00000000
    82  11.31370831   0.44907311   4.31754255   0.00000000   0.00000000   0.00000000
    82  16.97056198   0.44907311   4.31754255   0.00000000   0.00000000   0.00000000
    82  22.62741661   0.44907311   4.31754255   0.00000000   0.00000000   0.00000000
    82  28.28427124   0.44907311   3.68245721   0.00000000   0.00000000   0.00000000
    82  33.94112396   0.44907311   3.68245721   0.00000000   0.00000000   0.00000000
    82  39.59798050   0.44907311   3.68245721   0.00000000   0.00000000   0.00000000
    82  45.25483322   0.44907311   3.68245721   0.00000000   0.00000000   0.00000000
    82  50.91168594   0.44907311   3.68245721   0.00000000   0.00000000   0.00000000
    82   0.00000000   6.10592747   4.31754255   0.00000000   0.00000000   0.00000000
    82   5.65685415   6.10592747   4.31754255   0.00000000   0.00000000   0.00000000
    82  11.31370831   6.10592747   4.31754255   0.00000000   0.00000000   0.00000000
    82  16.97056198   6.10592747   4.31754255   0.00000000   0.00000000   0.00000000
    82  22.62741661   6.10592747   4.31754255   0.00000000   0.00000000   0.00000000
    82  28.28427124   6.10592747   3.68245721   0.00000000   0.00000000   0.00000000
    82  33.94112396   6.10592747   3.68245721   0.00000000   0.00000000   0.00000000
    82  39.59798050   6.10592747   3.68245721   0.00000000   0.00000000   0.00000000
    82  45.25483322   6.10592747   3.68245721   0.00000000   0.00000000   0.00000000
    82  50.91168594   6.10592747   3.68245721   0.00000000   0.00000000   0.00000000
    82   0.00000000   0.44907311   8.31754303   0.00000000   0.00000000   0.00000000
    82   5.65685415   0.44907311   8.31754303   0.00000000   0.00000000   0.00000000
    82  11.31370831   0.44907311   8.31754303   0.00000000   0.00000000   0.00000000
    82  16.97056198   0.44907311   8.31754303   0.00000000   0.00000000   0.00000000
    82  22.62741661   0.44907311   8.31754303   0.00000000   0.00000000   0.00000000
    82  28.28427124   0.44907311   7.68245745   0.00000000   0.00000000   0.00000000
    82  33.94112396   0.44907311   7.68245745   0.00000000   0.00000000   0.00000000
    82  39.59798050   0.44907311   7.68245745   0.00000000   0.00000000   0.00000000
    82  45.25483322   0.44907311   7.68245745   0.00000000   0.00000000   0.00000000
    82  50.91168594   0.44907311   7.68245745   0.00000000   0.00000000   0.00000000
    82   0.00000000   6.10592747   8.31754303   0.00000000   0.00000000   0.00000000
    82   5.65685415   6.10592747   8.31754303   0.00000000   0.00000000   0.00000000
    82  11.31370831   6.10592747   8.31754303   0.00000000   0.00000000   0.00000000
    82  16.97056198   6.10592747   8.31754303   0.00000000   0.00000000   0.00000000
    82  22.62741661   6.10592747   8.31754303   0.00000000   0.00000000   0.00000000
    82  28.28427124   6.10592747   7.68245745   0.00000000   0.00000000   0.00000000
    82  33.94112396   6.10592747   7.68245745   0.00000000   0.00000000   0.00000000
    82  39.59798050   6.10592747   7.68245745   0.00000000   0.00000000   0.00000000
    82  45.25483322   6.10592747   7.68245745   0.00000000   0.00000000   0.00000000
    82  50.91168594   6.10592747   7.68245745   0.00000000   0.00000000   0.00000000
    82   0.00000000   0.44907311  12.31754303   0.00000000   0.00000000   0.00000000
    82   5.65685415   0.44907311  12.31754303   0.00000000   0.00000000   0.00000000
    82  11.31370831   0.44907311  12.31754303   0.00000000   0.00000000   0.00000000
    82  16.97056198   0.44907311  12.31754303   0.00000000   0.00000000   0.00000000
    82  22.62741661   0.44907311  12.31754303   0.00000000   0.00000000   0.00000000
    82  28.28427124   0.44907311  11.68245697   0.00000000   0.00000000   0.00000000
    82  33.94112396   0.44907311  11.68245697   0.00000000   0.00000000   0.00000000
    82  39.59798050   0.44907311  11.68245697   0.00000000   0.00000000   0.00000000
    82  45.25483322   0.44907311  11.68245697   0.00000000   0.00000000   0.00000000
    82  50.91168594   0.44907311  11.68245697   0.00000000   0.00000000   0.00000000
    82   0.00000000   6.10592747  12.31754303   0.00000000   0.00000000   0.00000000
    82   5.65685415   6.10592747  12.31754303   0.00000000   0.00000000   0.00000000
    82  11.31370831   6.10592747  12.31754303   0.00000000   0.00000000   0.00000000
    82  16.97056198   6.10592747  12.31754303   0.00000000   0.00000000   0.00000000
    82  22.62741661   6.10592747  12.31754303   0.00000000   0.00000000   0.00000000
    82  28.28427124   6.10592747  11.68245697   0.00000000   0.00000000   0.00000000
    82  33.94112396   6.10592747  11.68245697   0.00000000   0.00000000   0.00000000
    82  39.59798050   6.10592747  11.68245697   0.00000000   0.00000000   0.00000000
    82  45.25483322   6.10592747  11.68245697   0.00000000   0.00000000   0.00000000
    82  50.91168594   6.10592747  11.68245697   0.00000000   0.00000000   0.00000000
    82   2.82842708   3.27750015   0.31754270   0.00000000   0.00000000   0.00000000
    82   8.48528099   3.27750015   0.31754270   0.00000000   0.00000000   0.00000000
    82  14.14213562   3.27750015   0.31754270   0.00000000   0.00000000   0.00000000
    82  19.79899025   3.27750015   0.31754270   0.00000000   0.00000000   0.00000000
    82  25.45584297   3.27750015   0.31754270   0.00000000   0.00000000   0.00000000
    82  31.11269760   3.27750015  -0.31754270   0.00000000   0.00000000   0.00000000
    82  36.76955032   3.27750015  -0.31754270   0.00000000   0.00000000   0.00000000
    82  42.42640686   3.27750015  -0.31754270   0.00000000   0.00000000   0.00000000
    82  48.08325958   3.27750015  -0.31754270   0.00000000   0.00000000   0.00000000
    82  53.74011612   3.27750015  -0.31754270   0.00000000   0.00000000   0.00000000
    82   2.82842708   8.93435478   0.31754270   0.00000000   0.00000000   0.00000000
    82   8.48528099   8.93435478   0.31754270   0.00000000   0.00000000   0.00000000
    82  14.14213562   8.93435478   0.31754270   0.00000000   0.00000000   0.00000000
    82  19.79899025   8.93435478   0.31754270   0.00000000   0.00000000   0.00000000
    82  25.45584297   8.93435478   0.31754270   0.00000000   0.00000000   0.00000000
    82  31.11269760   8.93435478  -0.31754270   0.00000000   0.00000000   0.00000000
    82  36.76955032   8.93435478  -0.31754270   0.00000000   0.00000000   0.00000000
    82  42.42640686   8.93435478  -0.31754270   0.00000000   0.00000000   0.00000000
    82  48.08325958   8.93435478  -0.31754270   0.00000000   0.00000000   0.00000000
    82  53.74011612   8.93435478  -0.31754270   0.00000000   0.00000000   0.00000000
    82   2.82842708   3.27750015   4.31754255   0.00000000   0.00000000   0.00000000
    82   8.48528099   3.27750015   4.31754255   0.00000000   0.00000000   0.00000000
    82  14.14213562   3.27750015   4.31754255   0.00000000   0.00000000   0.00000000
    82  19.79899025   3.27750015   4.31754255   0.00000000   0.00000000   0.00000000
    82  25.45584297   3.27750015   4.31754255   0.00000000   0.00000000   0.00000000
    82  31.11269760   3.27750015   3.68245721   0.00000000   0.00000000   0.00000000
    82  36.76955032   3.27750015   3.68245721   0.00000000   0.00000000   0.00000000
    82  42.42640686   3.27750015   3.68245721   0.00000000   0.00000000   0.00000000
    82  48.08325958   3.27750015   3.68245721   0.00000000   0.00000000   0.00000000
    82  53.74011612   3.27750015   3.68245721   0.00000000   0.00000000   0.00000000
    82   2.82842708   8.93435478   4.31754255   0.00000000   0.00000000   0.00000000
    82   8.48528099   8.93435478   4.31754255   0.00000000   0.00000000   0.00000000
    82  14.14213562   8.93435478   4.31754255   0.00000000   0.00000000   0.00000000
    82  19.79899025   8.93435478   4.31754255   0.00000000   0.00000000   0.00000000
    82  25.45584297   8.93435478   4.31754255   0.00000000   0.00000000   0.00000000
    82  31.11269760   8.93435478   3.68245721   0.00000000   0.00000000   0.00000000
    82  36.76955032   8.93435478   3.68245721   0.00000000   0.00000000   0.00000000
    82  42.42640686   8.93435478   3.68245721   0.00000000   0.00000000   0.00000000
    82  48.08325958   8.93435478   3.68245721   0.00000000   0.00000000   0.00000000
    82  53.74011612   8.93435478   3.68245721   0.00000000   0.00000000   0.00000000
    82   2.82842708   3.27750015   8.31754303   0.00000000   0.00000000   0.00000000
    82   8.48528099   3.27750015   8.31754303   0.00000000   0.00000000   0.00000000
    82  14.14213562   3.27750015   8.31754303   0.00000000   0.00000000   0.00000000
    82  19.79899025   3.27750015   8.31754303   0.00000000   0.00000000   0.00000000
    82  25.45584297   3.27750015   8.31754303   0.00000000   0.00000000   0.00000000
    82  31.11269760   3.27750015   7.68245745   0.00000000   0.00000000   0.00000000
    82  36.76955032   3.27750015   7.68245745   0.00000000   0.00000000   0.00000000
    82  42.42640686   3.27750015   7.68245745   0.00000000   0.00000000   0.00000000
    82  48.08325958   3.27750015   7.68245745   0.00000000   0.00000000   0.00000000
    82  53.74011612   3.27750015   7.68245745   0.00000000   0.00000000   0.00000000
    82   2.82842708   8.93435478   8.31754303   0.00000000   0.00000000   0.00000000
    82   8.48528099   8.93435478   8.31754303   0.00000000   0.00000000   0.00000000
    82  14.14213562   8.93435478   8.31754303   0.00000000   0.00000000   0.00000000
    82  19.79899025   8.93435478   8.31754303   0.00000000   0.00000000   0.00000000
    82  25.45584297   8.93435478   8.31754303   0.00000000   0.00000000   0.00000000
    82  31.11269760   8.93435478   7.68245745   0.00000000   0.00000000   0.00000000
    82  36.76955032   8.93435478   7.68245745   0.00000000   0.00000000   0.00000000
    82  42.42640686   8.93435478   7.68245745   0.00000000   0.00000000   0.00000000
    82  48.08325958   8.93435478   7.68245745   0.00000000   0.00000000   0.00000000
    82  53.74011612   8.93435478   7.68245745   0.00000000   0.00000000   0.00000000
    82   2.82842708   3.27750015  12.31754303   0.00000000   0.00000000   0.00000000
    82   8.48528099   3.27750015  12.31754303   0.00000000   0.00000000   0.00000000
    82  14.14213562   3.27750015  12.31754303   0.00000000   0.00000000   0.00000000
    82  19.79899025   3.27750015  12.31754303   0.00000000   0.00000000   0.00000000
    82  25.45584297   3.27750015  12.31754303   0.00000000   0.00000000   0.00000000
    82  31.11269760   3.27750015  11.68245697   0.00000000   0.00000000   0.00000000
    82  36.76955032   3.27750015  11.68245697   0.00000000   0.00000000   0.00000000
    82  42.42640686   3.27750015  11.68245697   0.00000000   0.00000000   0.00000000
    82  48.08325958   3.27750015  11.68245697   0.00000000   0.00000000   0.00000000
    82  53.74011612   3.27750015  11.68245697   0.00000000   0.00000000   0.00000000
    82   2.82842708   8.93435478  12.31754303   0.00000000   0.00000000   0.00000000
    82   8.48528099   8.93435478  12.31754303   0.00000000   0.00000000   0.00000000
    82  14.14213562   8.93435478  12.31754303   0.00000000   0.00000000   0.00000000
    82  19.79899025   8.93435478  12.31754303   0.00000000   0.00000000   0.00000000
    82  25.45584297   8.93435478  12.31754303   0.00000000   0.00000000   0.00000000
    82  31.11269760   8.93435478  11.68245697   0.00000000   0.00000000   0.00000000
    82  36.76955032   8.93435478  11.68245697   0.00000000   0.00000000   0.00000000
    82  42.42640686   8.93435478  11.68245697   0.00000000   0.00000000   0.00000000
    82  48.08325958   8.93435478  11.68245697   0.00000000   0.00000000   0.00000000
    82  53.74011612   8.93435478  11.68245697   0.00000000   0.00000000   0.00000000
    22   0.00000000   3.00805640   2.12701702  -0.00018460   0.63118577   0.33632681
    22   5.65685415   3.00805640   2.12701702   0.00160214   0.60575787   0.44496853
    22  11.31370831   3.00805640   2.12701702   0.00160233   0.60575787   0.44496853
    22  16.97056198   3.00805640   2.12701702   0.00160082   0.60575787   0.44496853
    22  22.62741661   3.00805640   2.12701702   0.00160236   0.60575787   0.44496853
    22  28.28427124   3.00805640   1.87298286   0.00160417   0.60575787  -0.33819630
    22  33.94112396   3.00805640   1.87298286   0.00160055   0.60575787  -0.44748805
    22  39.59798050   3.00805640   1.87298286   0.00160632   0.60575787  -0.44748805
    22  45.25483322   3.00805640   1.87298286   0.00160236   0.60575787  -0.44748805
    22  50.91168594   3.00805640   1.87298286   0.00146240   0.60575787  -0.44743569
    22   0.00000000   8.66491032   2.12701702   0.02577819   0.63283016   0.29961110
    22   5.65685415   8.66491032   2.12701702   0.02714131   0.60867151   0.40885081
    22  11.31370831   8.66491032   2.12701702   0.02714135   0.60867151   0.40885081
    22  16.97056198   8.66491032   2.12701702   0.02714015   0.60867151   0.40885081
    22  22.62741661   8.66491032   2.12701702   0.02714196   0.60867151   0.40885081
    22  28.28427124   8.66491032   1.87298286   0.02714255   0.60867151  -0.37431402
    22  33.94112396   8.66491032   1.87298286   0.02713952   0.60867151  -0.48360577
    22  39.59798050   8.66491032   1.87298286   0.02714524   0.60867151  -0.48360577
    22  45.25483322   8.66491032   1.87298286   0.02714139   0.60867151  -0.48360577
    22  50.91168594   8.66491032   1.87298286   0.02703863   0.60856031  -0.48360580
    22   0.00000000   3.00805640   6.12701702   0.00034913   0.60564655   0.33456326
    22   5.65685415   3.00805640   6.12701702   0.00213578   0.63129688   0.44320510
    22  11.31370831   3.00805640   6.12701702   0.00213616   0.63129688   0.44320510
    22  16.97056198   3.00805640   6.12701702   0.00213466   0.63129688   0.44320510
    22  22.62741661   3.00805640   6.12701702   0.00213556   0.63129688   0.44320510
    22  28.28427124   3.00805640   5.87298298   0.00213800   0.63129688  -0.33995956
    22  33.94112396   3.00805640   5.87298298   0.00213382   0.63129688  -0.44925133
    22  39.59798050   3.00805640   5.87298298   0.00214080   0.63129688  -0.44925133
    22  45.25483322   3.00805640   5.87298298   0.00213548   0.63129688  -0.44925133
    22  50.91168594   3.00805640   5.87298298   0.00199689   0.63129688  -0.44919897
    22   0.00000000   8.66491032   6.12701702  -0.02476621   0.60729096   0.37008296
    22   5.65685415   8.66491032   6.12701702  -0.02340339   0.63421052   0.47932270
    22  11.31370831   8.66491032   6.12701702  -0.02340288   0.63421052   0.47932270
    22  16.97056198   8.66491032   6.12701702  -0.02340435   0.63421052   0.47932270
    22  22.62741661   8.66491032   6.12701702  -0.02340404   0.63421052   0.47932270
    22  28.28427124   8.66491032   5.87298298  -0.02340168   0.63421052  -0.30384196
    22  33.94112396   8.66491032   5.87298298  -0.02340641   0.63421052  -0.41313372
    22  39.59798050   8.66491032   5.87298298  -0.02339834   0.63421052  -0.41313372
    22  45.25483322   8.66491032   5.87298298  -0.02340355   0.63421052  -0.41313372
    22  50.91168594   8.66491032   5.87298298  -0.02350494   0.63409933  -0.41313375
    22   0.00000000   3.00805640  10.12701702   0.00034913   0.65672479   0.33456315
    22   5.65685415   3.00805640  10.12701702   0.00213578   0.63129688   0.44320507
    22  11.31370831   3.00805640  10.12701702   0.00213616   0.63129688   0.44320507
    22  16.97056198   3.00805640  10.12701702   0.00213466   0.63129688   0.44320507
    22  22.62741661   3.00805640  10.12701702   0.00213556   0.63129688   0.44320507
    22  28.28427124   3.00805640   9.87298298   0.00213800   0.63129688  -0.33995978
    22  33.94112396   3.00805640   9.87298298   0.00213382   0.63129688  -0.44925160
    22  39.59798050   3.00805640   9.87298298   0.00214080   0.63129688  -0.44925160
    22  45.25483322   3.00805640   9.87298298   0.00213548   0.63129688  -0.44925160
    22  50.91168594   3.00805640   9.87298298   0.00199689   0.63129688  -0.44919925
    22   0.00000000   8.66491032  10.12701702   0.02631193   0.65836917   0.29784732
    22   5.65685415   8.66491032  10.12701702   0.02767496   0.63421052   0.40708715
    22  11.31370831   8.66491032  10.12701702   0.02767518   0.63421052   0.40708715
    22  16.97056198   8.66491032  10.12701702   0.02767399   0.63421052   0.40708715
    22  22.62741661   8.66491032  10.12701702   0.02767516   0.63421052   0.40708715
    22  28.28427124   8.66491032   9.87298298   0.02767638   0.63421052  -0.37607770
    22  33.94112396   8.66491032   9.87298298   0.02767279   0.63421052  -0.48536952
    22  39.59798050   8.66491032   9.87298298   0.02767972   0.63421052  -0.48536952
    22  45.25483322   8.66491032   9.87298298   0.02767451   0.63421052  -0.48536952
    22  50.91168594   8.66491032   9.87298298   0.02757312   0.63409933  -0.48536956
    22   0.00000000   3.00805640  14.12701702  -0.00018460   0.58010754   0.33632660
    22   5.65685415   3.00805640  14.12701702   0.00160214   0.60575787   0.44496850
    22  11.31370831   3.00805640  14.12701702   0.00160233   0.60575787   0.44496850
    22  16.97056198   3.00805640  14.12701702   0.00160082   0.60575787   0.44496850
    22  22.62741661   3.00805640  14.12701702   0.00160236   0.60575787   0.44496850
    22  28.28427124   3.00805640  13.87298298   0.00160417   0.60575787  -0.33819630
    22  33.94112396   3.00805640  13.87298298   0.00160055   0.60575787  -0.44748811
    22  39.59798050   3.00805640  13.87298298   0.00160632   0.60575787  -0.44748811
    22  45.25483322   3.00805640  13.87298298   0.00160236   0.60575787  -0.44748811
    22  50.91168594   3.00805640  13.87298298   0.00146240   0.60575787  -0.44743575
    22   0.00000000   8.66491032  14.12701702  -0.02529994   0.58175195   0.37184631
    22   5.65685415   8.66491032  14.12701702  -0.02393703   0.60867151   0.48108642
    22  11.31370831   8.66491032  14.12701702  -0.02393671   0.60867151   0.48108642
    22  16.97056198   8.66491032  14.12701702  -0.02393820   0.60867151   0.48108642
    22  22.62741661   8.66491032  14.12701702  -0.02393725   0.60867151   0.48108642
    22  28.28427124   8.66491032  13.87298298  -0.02393551   0.60867151  -0.30207838
    22  33.94112396   8.66491032  13.87298298  -0.02393968   0.60867151  -0.41137019
    22  39.59798050   8.66491032  13.87298298  -0.02393282   0.60867151  -0.41137019
    22  45.25483322   8.66491032  13.87298298  -0.02393668   0.60867151  -0.41137019
    22  50.91168594   8.66491032  13.87298298  -0.02403943   0.60856031  -0.41137023
    22   2.82842708   0.17962930   2.12701702   0.02704244   0.65963884   0.40885077
    22   8.48528099   0.17962930   2.12701702   0.02714101   0.65975003   0.40885081
    22  14.14213562   0.17962930   2.12701702   0.02714160   0.65975003   0.40885081
    22  19.79899025   0.17962930   2.12701702   0.02714320   0.65975003   0.40885081
    22  25.45584297   0.17962930   2.12701702   0.02714011   0.65975003   0.29955906
    22  31.11269760   0.17962930   1.87298286   0.02714061   0.65975003  -0.48360577
    22  36.76955032   0.17962930   1.87298286   0.02713746   0.65975003  -0.48360577
    22  42.42640686   0.17962930   1.87298286   0.02714321   0.65975003  -0.48360577
    22  48.08325958   0.17962930   1.87298286   0.02713956   0.65975003  -0.48360577
    22  53.74011612   0.17962930   1.87298286   0.02578127   0.68390861  -0.37426198
    22   2.82842708   5.83648348   2.12701702   0.00146617   0.65683619   0.44502089
    22   8.48528099   5.83648348   2.12701702   0.00160184   0.65683619   0.44496853
    22  14.14213562   5.83648348   2.12701702   0.00160255   0.65683619   0.44496853
    22  19.79899025   5.83648348   2.12701702   0.00160359   0.65683619   0.44496853
    22  25.45584297   5.83648348   2.12701702   0.00160113   0.65683619   0.33567678
    22  31.11269760   5.83648348   1.87298286   0.00160169   0.65683619  -0.44748805
    22  36.76955032   5.83648348   1.87298286   0.00159849   0.65683619  -0.44748805
    22  42.42640686   5.83648348   1.87298286   0.00160532   0.65683619  -0.44748805
    22  48.08325958   5.83648348   1.87298286   0.00159939   0.65683619  -0.44748805
    22  53.74011612   5.83648348   1.87298286  -0.00018117   0.68226417  -0.33754627
    22   2.82842708   0.17962930   6.12701702  -0.02350225   0.63409973   0.47932268
    22   8.48528099   0.17962930   6.12701702  -0.02340368   0.63421093   0.47932270
    22  14.14213562   0.17962930   6.12701702  -0.02340290   0.63421093   0.47932270
    22  19.79899025   0.17962930   6.12701702  -0.02340163   0.63421093   0.47932270
    22  25.45584297   0.17962930   6.12701702  -0.02340472   0.63421093   0.37003094
    22  31.11269760   0.17962930   5.87298298  -0.02340478   0.63421093  -0.41313372
    22  36.76955032   0.17962930   5.87298298  -0.02340611   0.63421093  -0.41313372
    22  42.42640686   0.17962930   5.87298298  -0.02340165   0.63421093  -0.41313372
    22  48.08325958   0.17962930   5.87298298  -0.02340529   0.63421093  -0.41313372
    22  53.74011612   0.17962930   5.87298298  -0.02476227   0.60729141  -0.30378994
    22   2.82842708   5.83648348   6.12701702   0.00199976   0.63129700   0.44325746
    22   8.48528099   5.83648348   6.12701702   0.00213535   0.63129700   0.44320510
    22  14.14213562   5.83648348   6.12701702   0.00213640   0.63129700   0.44320510
    22  19.79899025   5.83648348   6.12701702   0.00213739   0.63129700   0.44320510
    22  25.45584297   5.83648348   6.12701702   0.00213493   0.63129700   0.33391334
    22  31.11269760   5.83648348   5.87298298   0.00213550   0.63129700  -0.44925133
    22  36.76955032   5.83648348   5.87298298   0.00213298   0.63129700  -0.44925133
    22  42.42640686   5.83648348   5.87298298   0.00213852   0.63129700  -0.44925133
    22  48.08325958   5.83648348   5.87298298   0.00213260   0.63129700  -0.44925133
    22  53.74011612   5.83648348   5.87298298   0.00035336   0.60564662  -0.33930964
    22   2.82842708   0.17962930  10.12701702   0.02757603   0.63409973   0.40708712
    22   8.48528099   0.17962930  10.12701702   0.02767452   0.63421093   0.40708715
    22  14.14213562   0.17962930  10.12701702   0.02767544   0.63421093   0.40708715
    22  19.79899025   0.17962930  10.12701702   0.02767700   0.63421093   0.40708715
    22  25.45584297   0.17962930  10.12701702   0.02767391   0.63421093   0.29779532
    22  31.11269760   0.17962930   9.87298298   0.02767443   0.63421093  -0.48536952
    22  36.76955032   0.17962930   9.87298298   0.02767195   0.63421093  -0.48536952
    22  42.42640686   0.17962930   9.87298298   0.02767641   0.63421093  -0.48536952
    22  48.08325958   0.17962930   9.87298298   0.02767277   0.63421093  -0.48536952
    22  53.74011612   0.17962930   9.87298298   0.02631580   0.65836950  -0.37602570
    22   2.82842708   5.83648348  10.12701702   0.00199976   0.63129700   0.44325742
    22   8.48528099   5.83648348  10.12701702   0.00213535   0.63129700   0.44320507
    22  14.14213562   5.83648348  10.12701702   0.00213640   0.63129700   0.44320507
    22  19.79899025   5.83648348  10.12701702   0.00213739   0.63129700   0.44320507
    22  25.45584297   5.83648348  10.12701702   0.00213493   0.63129700   0.33391324
    22  31.11269760   5.83648348   9.87298298   0.00213550   0.63129700  -0.44925160
    22  36.76955032   5.83648348   9.87298298   0.00213298   0.63129700  -0.44925160
    22  42.42640686   5.83648348   9.87298298   0.00213852   0.63129700  -0.44925160
    22  48.08325958   5.83648348   9.87298298   0.00213260   0.63129700  -0.44925160
    22  53.74011612   5.83648348   9.87298298   0.00035336   0.65672497  -0.33930986
    22   2.82842708   0.17962930  14.12701702  -0.02403584   0.65963884   0.48108638
    22   8.48528099   0.17962930  14.12701702  -0.02393719   0.65975003   0.48108642
    22  14.14213562   0.17962930  14.12701702  -0.02393675   0.65975003   0.48108642
    22  19.79899025   0.17962930  14.12701702  -0.02393543   0.65975003   0.48108642
    22  25.45584297   0.17962930  14.12701702  -0.02393852   0.65975003   0.37179461
    22  31.11269760   0.17962930  13.87298298  -0.02393859   0.65975003  -0.41137019
    22  36.76955032   0.17962930  13.87298298  -0.02394060   0.65975003  -0.41137019
    22  42.42640686   0.17962930  13.87298298  -0.02393485   0.65975003  -0.41137019
    22  48.08325958   0.17962930  13.87298298  -0.02393850   0.65975003  -0.41137019
    22  53.74011612   0.17962930  13.87298298  -0.02529680   0.63283051  -0.30202668
    22   2.82842708   5.83648348  14.12701702   0.00146617   0.65683619   0.44502086
    22   8.48528099   5.83648348  14.12701702   0.00160184   0.65683619   0.44496850
    22  14.14213562   5.83648348  14.12701702   0.00160255   0.65683619   0.44496850
    22  19.79899025   5.83648348  14.12701702   0.00160359   0.65683619   0.44496850
    22  25.45584297   5.83648348  14.12701702   0.00160113   0.65683619   0.33567669
    22  31.11269760   5.83648348  13.87298298   0.00160169   0.65683619  -0.44748811
    22  36.76955032   5.83648348  13.87298298   0.00159849   0.65683619  -0.44748811
    22  42.42640686   5.83648348  13.87298298   0.00160532   0.65683619  -0.44748811
    22  48.08325958   5.83648348  13.87298298   0.00159939   0.65683619  -0.44748811
    22  53.74011612   5.83648348  13.87298298  -0.00018117   0.63118582  -0.33754639
     8  -0.00129230   2.74292803  -0.00060920   0.00000000   0.00000000   0.00000000
     8   5.65556192   2.74292803  -0.00060920   0.00000000   0.00000000   0.00000000
     8  11.31241608   2.74292803  -0.00060920   0.00000000   0.00000000   0.00000000
     8  16.96927071   2.74292803  -0.00060920   0.00000000   0.00000000   0.00000000
     8  22.62612343   2.74292803  -0.00060920   0.00000000   0.00000000   0.00000000
     8  28.28297806   2.74292803  -0.00060920   0.00000000   0.00000000   0.00000000
     8  33.93983078   2.74292803  -0.00060920   0.00000000   0.00000000   0.00000000
     8  39.59668732   2.74292803  -0.00060920   0.00000000   0.00000000   0.00000000
     8  45.25354004   2.74292803  -0.00060920   0.00000000   0.00000000   0.00000000
     8  50.91039658   2.74292803  -0.00060920   0.00000000   0.00000000   0.00000000
     8  -0.00129230   8.39978218  -0.00060920   0.00000000   0.00000000   0.00000000
     8   5.65556192   8.39978218  -0.00060920   0.00000000   0.00000000   0.00000000
     8  11.31241608   8.39978218  -0.00060920   0.00000000   0.00000000   0.00000000
     8  16.96927071   8.39978218  -0.00060920   0.00000000   0.00000000   0.00000000
     8  22.62612343   8.39978218  -0.00060920   0.00000000   0.00000000   0.00000000
     8  28.28297806   8.39978218  -0.00060920   0.00000000   0.00000000   0.00000000
     8  33.93983078   8.39978218  -0.00060920   0.00000000   0.00000000   0.00000000
     8  39.59668732   8.39978218  -0.00060920   0.00000000   0.00000000   0.00000000
     8  45.25354004   8.39978218  -0.00060920   0.00000000   0.00000000   0.00000000
     8  50.91039658   8.39978218  -0.00060920   0.00000000   0.00000000   0.00000000
     8  -0.00258310   2.99942493   4.00365591   0.00000000   0.00000000   0.00000000
     8   5.65427113   2.99942493   4.00365591   0.00000000   0.00000000   0.00000000
     8  11.31112480   2.99942493   4.00365591   0.00000000   0.00000000   0.00000000
     8  16.96797943   2.99942493   4.00365591   0.00000000   0.00000000   0.00000000
     8  22.62483406   2.99942493   4.00365591   0.00000000   0.00000000   0.00000000
     8  28.28168678   2.99942493   4.00365591   0.00000000   0.00000000   0.00000000
     8  33.93854141   2.99942493   4.00365591   0.00000000   0.00000000   0.00000000
     8  39.59539413   2.99942493   4.00365591   0.00000000   0.00000000   0.00000000
     8  45.25225067   2.99942493   4.00365591   0.00000000   0.00000000   0.00000000