 #LAMMPS ABO3 domain
   
      800 atoms
 3  atom types
   
 0.0    56.56854  xlo xhi
 0.0    11.31371  ylo yhi
 0.0    16.00000  zlo zhi
   
 Masses
   
 1   208.98039
 2    55.84500
 3    15.99940
  
   
 Atoms
   
         1   1   1    1.93753    0.0000000   0.4490731   0.3175427
         2   1   1    1.93753    5.6568542   0.4490731   0.3175427
         3   1   1    1.93753   11.3137083   0.4490731   0.3175427
         4   1   1    1.93753   16.9705625   0.4490731   0.3175427
         5   1   1    1.93753   22.6274166   0.4490731   0.3175427
         6   1   1    1.93753   28.2842708   0.4490731  -0.3175427
         7   1   1    1.93753   33.9411249   0.4490731  -0.3175427
         8   1   1    1.93753   39.5979791   0.4490731  -0.3175427
         9   1   1    1.93753   45.2548332   0.4490731  -0.3175427
        10   1   1    1.93753   50.9116874   0.4490731  -0.3175427
        11   1   1    1.93753    0.0000000   6.1059273   0.3175427
        12   1   1    1.93753    5.6568542   6.1059273   0.3175427
        13   1   1    1.93753   11.3137083   6.1059273   0.3175427
        14   1   1    1.93753   16.9705625   6.1059273   0.3175427
        15   1   1    1.93753   22.6274166   6.1059273   0.3175427
        16   1   1    1.93753   28.2842708   6.1059273  -0.3175427
        17   1   1    1.93753   33.9411249   6.1059273  -0.3175427
        18   1   1    1.93753   39.5979791   6.1059273  -0.3175427
        19   1   1    1.93753   45.2548332   6.1059273  -0.3175427
        20   1   1    1.93753   50.9116874   6.1059273  -0.3175427
        21   1   1    1.93753    0.0000000   0.4490731   4.3175427
        22   1   1    1.93753    5.6568542   0.4490731   4.3175427
        23   1   1    1.93753   11.3137083   0.4490731   4.3175427
        24   1   1    1.93753   16.9705625   0.4490731   4.3175427
        25   1   1    1.93753   22.6274166   0.4490731   4.3175427
        26   1   1    1.93753   28.2842708   0.4490731   3.6824573
        27   1   1    1.93753   33.9411249   0.4490731   3.6824573
        28   1   1    1.93753   39.5979791   0.4490731   3.6824573
        29   1   1    1.93753   45.2548332   0.4490731   3.6824573
        30   1   1    1.93753   50.9116874   0.4490731   3.6824573
        31   1   1    1.93753    0.0000000   6.1059273   4.3175427
        32   1   1    1.93753    5.6568542   6.1059273   4.3175427
        33   1   1    1.93753   11.3137083   6.1059273   4.3175427
        34   1   1    1.93753   16.9705625   6.1059273   4.3175427
        35   1   1    1.93753   22.6274166   6.1059273   4.3175427
        36   1   1    1.93753   28.2842708   6.1059273   3.6824573
        37   1   1    1.93753   33.9411249   6.1059273   3.6824573
        38   1   1    1.93753   39.5979791   6.1059273   3.6824573
        39   1   1    1.93753   45.2548332   6.1059273   3.6824573
        40   1   1    1.93753   50.9116874   6.1059273   3.6824573
        41   1   1    1.93753    0.0000000   0.4490731   8.3175427
        42   1   1    1.93753    5.6568542   0.4490731   8.3175427
        43   1   1    1.93753   11.3137083   0.4490731   8.3175427
        44   1   1    1.93753   16.9705625   0.4490731   8.3175427
        45   1   1    1.93753   22.6274166   0.4490731   8.3175427
        46   1   1    1.93753   28.2842708   0.4490731   7.6824573
        47   1   1    1.93753   33.9411249   0.4490731   7.6824573
        48   1   1    1.93753   39.5979791   0.4490731   7.6824573
        49   1   1    1.93753   45.2548332   0.4490731   7.6824573
        50   1   1    1.93753   50.9116874   0.4490731   7.6824573
        51   1   1    1.93753    0.0000000   6.1059273   8.3175427
        52   1   1    1.93753    5.6568542   6.1059273   8.3175427
        53   1   1    1.93753   11.3137083   6.1059273   8.3175427
        54   1   1    1.93753   16.9705625   6.1059273   8.3175427
        55   1   1    1.93753   22.6274166   6.1059273   8.3175427
        56   1   1    1.93753   28.2842708   6.1059273   7.6824573
        57   1   1    1.93753   33.9411249   6.1059273   7.6824573
        58   1   1    1.93753   39.5979791   6.1059273   7.6824573
        59   1   1    1.93753   45.2548332   6.1059273   7.6824573
        60   1   1    1.93753   50.9116874   6.1059273   7.6824573
        61   1   1    1.93753    0.0000000   0.4490731  12.3175427
        62   1   1    1.93753    5.6568542   0.4490731  12.3175427
        63   1   1    1.93753   11.3137083   0.4490731  12.3175427
        64   1   1    1.93753   16.9705625   0.4490731  12.3175427
        65   1   1    1.93753   22.6274166   0.4490731  12.3175427
        66   1   1    1.93753   28.2842708   0.4490731  11.6824573
        67   1   1    1.93753   33.9411249   0.4490731  11.6824573
        68   1   1    1.93753   39.5979791   0.4490731  11.6824573
        69   1   1    1.93753   45.2548332   0.4490731  11.6824573
        70   1   1    1.93753   50.9116874   0.4490731  11.6824573
        71   1   1    1.93753    0.0000000   6.1059273  12.3175427
        72   1   1    1.93753    5.6568542   6.1059273  12.3175427
        73   1   1    1.93753   11.3137083   6.1059273  12.3175427
        74   1   1    1.93753   16.9705625   6.1059273  12.3175427
        75   1   1    1.93753   22.6274166   6.1059273  12.3175427
        76   1   1    1.93753   28.2842708   6.1059273  11.6824573
        77   1   1    1.93753   33.9411249   6.1059273  11.6824573
        78   1   1    1.93753   39.5979791   6.1059273  11.6824573
        79   1   1    1.93753   45.2548332   6.1059273  11.6824573
        80   1   1    1.93753   50.9116874   6.1059273  11.6824573
        81   1   1    1.93753    2.8284271   3.2775002   0.3175427
        82   1   1    1.93753    8.4852812   3.2775002   0.3175427
        83   1   1    1.93753   14.1421354   3.2775002   0.3175427
        84   1   1    1.93753   19.7989895   3.2775002   0.3175427
        85   1   1    1.93753   25.4558437   3.2775002   0.3175427
        86   1   1    1.93753   31.1126978   3.2775002  -0.3175427
        87   1   1    1.93753   36.7695520   3.2775002  -0.3175427
        88   1   1    1.93753   42.4264061   3.2775002  -0.3175427
        89   1   1    1.93753   48.0832603   3.2775002  -0.3175427
        90   1   1    1.93753   53.7401145   3.2775002  -0.3175427
        91   1   1    1.93753    2.8284271   8.9343544   0.3175427
        92   1   1    1.93753    8.4852812   8.9343544   0.3175427
        93   1   1    1.93753   14.1421354   8.9343544   0.3175427
        94   1   1    1.93753   19.7989895   8.9343544   0.3175427
        95   1   1    1.93753   25.4558437   8.9343544   0.3175427
        96   1   1    1.93753   31.1126978   8.9343544  -0.3175427
        97   1   1    1.93753   36.7695520   8.9343544  -0.3175427
        98   1   1    1.93753   42.4264061   8.9343544  -0.3175427
        99   1   1    1.93753   48.0832603   8.9343544  -0.3175427
       100   1   1    1.93753   53.7401145   8.9343544  -0.3175427
       101   1   1    1.93753    2.8284271   3.2775002   4.3175427
       102   1   1    1.93753    8.4852812   3.2775002   4.3175427
       103   1   1    1.93753   14.1421354   3.2775002   4.3175427
       104   1   1    1.93753   19.7989895   3.2775002   4.3175427
       105   1   1    1.93753   25.4558437   3.2775002   4.3175427
       106   1   1    1.93753   31.1126978   3.2775002   3.6824573
       107   1   1    1.93753   36.7695520   3.2775002   3.6824573
       108   1   1    1.93753   42.4264061   3.2775002   3.6824573
       109   1   1    1.93753   48.0832603   3.2775002   3.6824573
       110   1   1    1.93753   53.7401145   3.2775002   3.6824573
       111   1   1    1.93753    2.8284271   8.9343544   4.3175427
       112   1   1    1.93753    8.4852812   8.9343544   4.3175427
       113   1   1    1.93753   14.1421354   8.9343544   4.3175427
       114   1   1    1.93753   19.7989895   8.9343544   4.3175427
       115   1   1    1.93753   25.4558437   8.9343544   4.3175427
       116   1   1    1.93753   31.1126978   8.9343544   3.6824573
       117   1   1    1.93753   36.7695520   8.9343544   3.6824573
       118   1   1    1.93753   42.4264061   8.9343544   3.6824573
       119   1   1    1.93753   48.0832603   8.9343544   3.6824573
       120   1   1    1.93753   53.7401145   8.9343544   3.6824573
       121   1   1    1.93753    2.8284271   3.2775002   8.3175427
       122   1   1    1.93753    8.4852812   3.2775002   8.3175427
       123   1   1    1.93753   14.1421354   3.2775002   8.3175427
       124   1   1    1.93753   19.7989895   3.2775002   8.3175427
       125   1   1    1.93753   25.4558437   3.2775002   8.3175427
       126   1   1    1.93753   31.1126978   3.2775002   7.6824573
       127   1   1    1.93753   36.7695520   3.2775002   7.6824573
       128   1   1    1.93753   42.4264061   3.2775002   7.6824573
       129   1   1    1.93753   48.0832603   3.2775002   7.6824573
       130   1   1    1.93753   53.7401145   3.2775002   7.6824573
       131   1   1    1.93753    2.8284271   8.9343544   8.3175427
       132   1   1    1.93753    8.4852812   8.9343544   8.3175427
       133   1   1    1.93753   14.1421354   8.9343544   8.3175427
       134   1   1    1.93753   19.7989895   8.9343544   8.3175427
       135   1   1    1.93753   25.4558437   8.9343544   8.3175427
       136   1   1    1.93753   31.1126978   8.9343544   7.6824573
       137   1   1    1.93753   36.7695520   8.9343544   7.6824573
       138   1   1    1.93753   42.4264061   8.9343544   7.6824573
       139   1   1    1.93753   48.0832603   8.9343544   7.6824573
       140   1   1    1.93753   53.7401145   8.9343544   7.6824573
       141   1   1    1.93753    2.8284271   3.2775002  12.3175427
       142   1   1    1.93753    8.4852812   3.2775002  12.3175427
       143   1   1    1.93753   14.1421354   3.2775002  12.3175427
       144   1   1    1.93753   19.7989895   3.2775002  12.3175427
       145   1   1    1.93753   25.4558437   3.2775002  12.3175427
       146   1   1    1.93753   31.1126978   3.2775002  11.6824573
       147   1   1    1.93753   36.7695520   3.2775002  11.6824573
       148   1   1    1.93753   42.4264061   3.2775002  11.6824573
       149   1   1    1.93753   48.0832603   3.2775002  11.6824573
       150   1   1    1.93753   53.7401145   3.2775002  11.6824573
       151   1   1    1.93753    2.8284271   8.9343544  12.3175427
       152   1   1    1.93753    8.4852812   8.9343544  12.3175427
       153   1   1    1.93753   14.1421354   8.9343544  12.3175427
       154   1   1    1.93753   19.7989895   8.9343544  12.3175427
       155   1   1    1.93753   25.4558437   8.9343544  12.3175427
       156   1   1    1.93753   31.1126978   8.9343544  11.6824573
       157   1   1    1.93753   36.7695520   8.9343544  11.6824573
       158   1   1    1.93753   42.4264061   8.9343544  11.6824573
       159   1   1    1.93753   48.0832603   8.9343544  11.6824573
       160   1   1    1.93753   53.7401145   8.9343544  11.6824573
       161   1   2    1.77706    0.0000000   3.0080563   2.1270171
       162   1   2    1.77706    5.6568542   3.0080563   2.1270171
       163   1   2    1.77706   11.3137083   3.0080563   2.1270171
       164   1   2    1.77706   16.9705625   3.0080563   2.1270171
       165   1   2    1.77706   22.6274166   3.0080563   2.1270171
       166   1   2    1.77706   28.2842708   3.0080563   1.8729829
       167   1   2    1.77706   33.9411249   3.0080563   1.8729829
       168   1   2    1.77706   39.5979791   3.0080563   1.8729829
       169   1   2    1.77706   45.2548332   3.0080563   1.8729829
       170   1   2    1.77706   50.9116874   3.0080563   1.8729829
       171   1   2    1.77706    0.0000000   8.6649105   2.1270171
       172   1   2    1.77706    5.6568542   8.6649105   2.1270171
       173   1   2    1.77706   11.3137083   8.6649105   2.1270171
       174   1   2    1.77706   16.9705625   8.6649105   2.1270171
       175   1   2    1.77706   22.6274166   8.6649105   2.1270171
       176   1   2    1.77706   28.2842708   8.6649105   1.8729829
       177   1   2    1.77706   33.9411249   8.6649105   1.8729829
       178   1   2    1.77706   39.5979791   8.6649105   1.8729829
       179   1   2    1.77706   45.2548332   8.6649105   1.8729829
       180   1   2    1.77706   50.9116874   8.6649105   1.8729829
       181   1   2    1.77706    0.0000000   3.0080563   6.1270171
       182   1   2    1.77706    5.6568542   3.0080563   6.1270171
       183   1   2    1.77706   11.3137083   3.0080563   6.1270171
       184   1   2    1.77706   16.9705625   3.0080563   6.1270171
       185   1   2    1.77706   22.6274166   3.0080563   6.1270171
       186   1   2    1.77706   28.2842708   3.0080563   5.8729829
       187   1   2    1.77706   33.9411249   3.0080563   5.8729829
       188   1   2    1.77706   39.5979791   3.0080563   5.8729829
       189   1   2    1.77706   45.2548332   3.0080563   5.8729829
       190   1   2    1.77706   50.9116874   3.0080563   5.8729829
       191   1   2    1.77706    0.0000000   8.6649105   6.1270171
       192   1   2    1.77706    5.6568542   8.6649105   6.1270171
       193   1   2    1.77706   11.3137083   8.6649105   6.1270171
       194   1   2    1.77706   16.9705625   8.6649105   6.1270171
       195   1   2    1.77706   22.6274166   8.6649105   6.1270171
       196   1   2    1.77706   28.2842708   8.6649105   5.8729829
       197   1   2    1.77706   33.9411249   8.6649105   5.8729829
       198   1   2    1.77706   39.5979791   8.6649105   5.8729829
       199   1   2    1.77706   45.2548332   8.6649105   5.8729829
       200   1   2    1.77706   50.9116874   8.6649105   5.8729829
       201   1   2    1.77706    0.0000000   3.0080563  10.1270171
       202   1   2    1.77706    5.6568542   3.0080563  10.1270171
       203   1   2    1.77706   11.3137083   3.0080563  10.1270171
       204   1   2    1.77706   16.9705625   3.0080563  10.1270171
       205   1   2    1.77706   22.6274166   3.0080563  10.1270171
       206   1   2    1.77706   28.2842708   3.0080563   9.8729829
       207   1   2    1.77706   33.9411249   3.0080563   9.8729829
       208   1   2    1.77706   39.5979791   3.0080563   9.8729829
       209   1   2    1.77706   45.2548332   3.0080563   9.8729829
       210   1   2    1.77706   50.9116874   3.0080563   9.8729829
       211   1   2    1.77706    0.0000000   8.6649105  10.1270171
       212   1   2    1.77706    5.6568542   8.6649105  10.1270171
       213   1   2    1.77706   11.3137083   8.6649105  10.1270171
       214   1   2    1.77706   16.9705625   8.6649105  10.1270171
       215   1   2    1.77706   22.6274166   8.6649105  10.1270171
       216   1   2    1.77706   28.2842708   8.6649105   9.8729829
       217   1   2    1.77706   33.9411249   8.6649105   9.8729829
       218   1   2    1.77706   39.5979791   8.6649105   9.8729829
       219   1   2    1.77706   45.2548332   8.6649105   9.8729829
       220   1   2    1.77706   50.9116874   8.6649105   9.8729829
       221   1   2    1.77706    0.0000000   3.0080563  14.1270171
       222   1   2    1.77706    5.6568542   3.0080563  14.1270171
       223   1   2    1.77706   11.3137083   3.0080563  14.1270171
       224   1   2    1.77706   16.9705625   3.0080563  14.1270171
       225   1   2    1.77706   22.6274166   3.0080563  14.1270171
       226   1   2    1.77706   28.2842708   3.0080563  13.8729829
       227   1   2    1.77706   33.9411249   3.0080563  13.8729829
       228   1   2    1.77706   39.5979791   3.0080563  13.8729829
       229   1   2    1.77706   45.2548332   3.0080563  13.8729829
       230   1   2    1.77706   50.9116874   3.0080563  13.8729829
       231   1   2    1.77706    0.0000000   8.6649105  14.1270171
       232   1   2    1.77706    5.6568542   8.6649105  14.1270171
       233   1   2    1.77706   11.3137083   8.6649105  14.1270171
       234   1   2    1.77706   16.9705625   8.6649105  14.1270171
       235   1   2    1.77706   22.6274166   8.6649105  14.1270171
       236   1   2    1.77706   28.2842708   8.6649105  13.8729829
       237   1   2    1.77706   33.9411249   8.6649105  13.8729829
       238   1   2    1.77706   39.5979791   8.6649105  13.8729829
       239   1   2    1.77706   45.2548332   8.6649105  13.8729829
       240   1   2    1.77706   50.9116874   8.6649105  13.8729829
       241   1   2    1.77706    2.8284271   0.1796293   2.1270171
       242   1   2    1.77706    8.4852812   0.1796293   2.1270171
       243   1   2    1.77706   14.1421354   0.1796293   2.1270171
       244   1   2    1.77706   19.7989895   0.1796293   2.1270171
       245   1   2    1.77706   25.4558437   0.1796293   2.1270171
       246   1   2    1.77706   31.1126978   0.1796293   1.8729829
       247   1   2    1.77706   36.7695520   0.1796293   1.8729829
       248   1   2    1.77706   42.4264061   0.1796293   1.8729829
       249   1   2    1.77706   48.0832603   0.1796293   1.8729829
       250   1   2    1.77706   53.7401145   0.1796293   1.8729829
       251   1   2    1.77706    2.8284271   5.8364834   2.1270171
       252   1   2    1.77706    8.4852812   5.8364834   2.1270171
       253   1   2    1.77706   14.1421354   5.8364834   2.1270171
       254   1   2    1.77706   19.7989895   5.8364834   2.1270171
       255   1   2    1.77706   25.4558437   5.8364834   2.1270171
       256   1   2    1.77706   31.1126978   5.8364834   1.8729829
       257   1   2    1.77706   36.7695520   5.8364834   1.8729829
       258   1   2    1.77706   42.4264061   5.8364834   1.8729829
       259   1   2    1.77706   48.0832603   5.8364834   1.8729829
       260   1   2    1.77706   53.7401145   5.8364834   1.8729829
       261   1   2    1.77706    2.8284271   0.1796293   6.1270171
       262   1   2    1.77706    8.4852812   0.1796293   6.1270171
       263   1   2    1.77706   14.1421354   0.1796293   6.1270171
       264   1   2    1.77706   19.7989895   0.1796293   6.1270171
       265   1   2    1.77706   25.4558437   0.1796293   6.1270171
       266   1   2    1.77706   31.1126978   0.1796293   5.8729829
       267   1   2    1.77706   36.7695520   0.1796293   5.8729829
       268   1   2    1.77706   42.4264061   0.1796293   5.8729829
       269   1   2    1.77706   48.0832603   0.1796293   5.8729829
       270   1   2    1.77706   53.7401145   0.1796293   5.8729829
       271   1   2    1.77706    2.8284271   5.8364834   6.1270171
       272   1   2    1.77706    8.4852812   5.8364834   6.1270171
       273   1   2    1.77706   14.1421354   5.8364834   6.1270171
       274   1   2    1.77706   19.7989895   5.8364834   6.1270171
       275   1   2    1.77706   25.4558437   5.8364834   6.1270171
       276   1   2    1.77706   31.1126978   5.8364834   5.8729829
       277   1   2    1.77706   36.7695520   5.8364834   5.8729829
       278   1   2    1.77706   42.4264061   5.8364834   5.8729829
       279   1   2    1.77706   48.0832603   5.8364834   5.8729829
       280   1   2    1.77706   53.7401145   5.8364834   5.8729829
       281   1   2    1.77706    2.8284271   0.1796293  10.1270171
       282   1   2    1.77706    8.4852812   0.1796293  10.1270171
       283   1   2    1.77706   14.1421354   0.1796293  10.1270171
       284   1   2    1.77706   19.7989895   0.1796293  10.1270171
       285   1   2    1.77706   25.4558437   0.1796293  10.1270171
       286   1   2    1.77706   31.1126978   0.1796293   9.8729829
       287   1   2    1.77706   36.7695520   0.1796293   9.8729829
       288   1   2    1.77706   42.4264061   0.1796293   9.8729829
       289   1   2    1.77706   48.0832603   0.1796293   9.8729829
       290   1   2    1.77706   53.7401145   0.1796293   9.8729829
       291   1   2    1.77706    2.8284271   5.8364834  10.1270171
       292   1   2    1.77706    8.4852812   5.8364834  10.1270171
       293   1   2    1.77706   14.1421354   5.8364834  10.1270171
       294   1   2    1.77706   19.7989895   5.8364834  10.1270171
       295   1   2    1.77706   25.4558437   5.8364834  10.1270171
       296   1   2    1.77706   31.1126978   5.8364834   9.8729829
       297   1   2    1.77706   36.7695520   5.8364834   9.8729829
       298   1   2    1.77706   42.4264061   5.8364834   9.8729829
       299   1   2    1.77706   48.0832603   5.8364834   9.8729829
       300   1   2    1.77706   53.7401145   5.8364834   9.8729829
       301   1   2    1.77706    2.8284271   0.1796293  14.1270171
       302   1   2    1.77706    8.4852812   0.1796293  14.1270171
       303   1   2    1.77706   14.1421354   0.1796293  14.1270171
       304   1   2    1.77706   19.7989895   0.1796293  14.1270171
       305   1   2    1.77706   25.4558437   0.1796293  14.1270171
       306   1   2    1.77706   31.1126978   0.1796293  13.8729829
       307   1   2    1.77706   36.7695520   0.1796293  13.8729829
       308   1   2    1.77706   42.4264061   0.1796293  13.8729829
       309   1   2    1.77706   48.0832603   0.1796293  13.8729829
       310   1   2    1.77706   53.7401145   0.1796293  13.8729829
       311   1   2    1.77706    2.8284271   5.8364834  14.1270171
       312   1   2    1.77706    8.4852812   5.8364834  14.1270171
       313   1   2    1.77706   14.1421354   5.8364834  14.1270171
       314   1   2    1.77706   19.7989895   5.8364834  14.1270171
       315   1   2    1.77706   25.4558437   5.8364834  14.1270171
       316   1   2    1.77706   31.1126978   5.8364834  13.8729829
       317   1   2    1.77706   36.7695520   5.8364834  13.8729829
       318   1   2    1.77706   42.4264061   5.8364834  13.8729829
       319   1   2    1.77706   48.0832603   5.8364834  13.8729829
       320   1   2    1.77706   53.7401145   5.8364834  13.8729829
       321   1   3   -1.23820   -0.0012923   2.7429281  -0.0006092
       322   1   3   -1.23820    5.6555618   2.7429281  -0.0006092
       323   1   3   -1.23820   11.3124160   2.7429281  -0.0006092
       324   1   3   -1.23820   16.9692701   2.7429281  -0.0006092
       325   1   3   -1.23820   22.6261243   2.7429281  -0.0006092
       326   1   3   -1.23820   28.2829784   2.7429281  -0.0006092
       327   1   3   -1.23820   33.9398326   2.7429281  -0.0006092
       328   1   3   -1.23820   39.5966867   2.7429281  -0.0006092
       329   1   3   -1.23820   45.2535409   2.7429281  -0.0006092
       330   1   3   -1.23820   50.9103950   2.7429281  -0.0006092
       331   1   3   -1.23820   -0.0012923   8.3997822  -0.0006092
       332   1   3   -1.23820    5.6555618   8.3997822  -0.0006092
       333   1   3   -1.23820   11.3124160   8.3997822  -0.0006092
       334   1   3   -1.23820   16.9692701   8.3997822  -0.0006092
       335   1   3   -1.23820   22.6261243   8.3997822  -0.0006092
       336   1   3   -1.23820   28.2829784   8.3997822  -0.0006092
       337   1   3   -1.23820   33.9398326   8.3997822  -0.0006092
       338   1   3   -1.23820   39.5966867   8.3997822  -0.0006092
       339   1   3   -1.23820   45.2535409   8.3997822  -0.0006092
       340   1   3   -1.23820   50.9103950   8.3997822  -0.0006092
       341   1   3   -1.23820   -0.0025831   2.9994250   4.0036561
       342   1   3   -1.23820    5.6542710   2.9994250   4.0036561
       343   1   3   -1.23820   11.3111252   2.9994250   4.0036561
       344   1   3   -1.23820   16.9679793   2.9994250   4.0036561
       345   1   3   -1.23820   22.6248335   2.9994250   4.0036561
       346   1   3   -1.23820   28.2816876   2.9994250   4.0036561
       347   1   3   -1.23820   33.9385418   2.9994250   4.0036561
       348   1   3   -1.23820   39.5953959   2.9994250   4.0036561
       349   1   3   -1.23820   45.2522501   2.9994250   4.0036561
       350   1   3   -1.23820   50.9091042   2.9994250   4.0036561
       351   1   3   -1.23820   -0.0025831   8.6562792   4.0036561
       352   1   3   -1.23820    5.6542710   8.6562792   4.0036561
       353   1   3   -1.23820   11.3111252   8.6562792   4.0036561
       354   1   3   -1.23820   16.9679793   8.6562792   4.0036561
       355   1   3   -1.23820   22.6248335   8.6562792   4.0036561
       356   1   3   -1.23820   28.2816876   8.6562792   4.0036561
       357   1   3   -1.23820   33.9385418   8.6562792   4.0036561
       358   1   3   -1.23820   39.5953959   8.6562792   4.0036561
       359   1   3   -1.23820   45.2522501   8.6562792   4.0036561
       360   1   3   -1.23820   50.9091042   8.6562792   4.0036561
       361   1   3   -1.23820   -0.0025831   2.6574291   8.0036561
       362   1   3   -1.23820    5.6542710   2.6574291   8.0036561
       363   1   3   -1.23820   11.3111252   2.6574291   8.0036561
       364   1   3   -1.23820   16.9679793   2.6574291   8.0036561
       365   1   3   -1.23820   22.6248335   2.6574291   8.0036561
       366   1   3   -1.23820   28.2816876   2.6574291   8.0036561
       367   1   3   -1.23820   33.9385418   2.6574291   8.0036561
       368   1   3   -1.23820   39.5953959   2.6574291   8.0036561
       369   1   3   -1.23820   45.2522501   2.6574291   8.0036561
       370   1   3   -1.23820   50.9091042   2.6574291   8.0036561
       371   1   3   -1.23820   -0.0025831   8.3142833   8.0036561
       372   1   3   -1.23820    5.6542710   8.3142833   8.0036561
       373   1   3   -1.23820   11.3111252   8.3142833   8.0036561
       374   1   3   -1.23820   16.9679793   8.3142833   8.0036561
       375   1   3   -1.23820   22.6248335   8.3142833   8.0036561
       376   1   3   -1.23820   28.2816876   8.3142833   8.0036561
       377   1   3   -1.23820   33.9385418   8.3142833   8.0036561
       378   1   3   -1.23820   39.5953959   8.3142833   8.0036561
       379   1   3   -1.23820   45.2522501   8.3142833   8.0036561
       380   1   3   -1.23820   50.9091042   8.3142833   8.0036561
       381   1   3   -1.23820   -0.0025831   2.9994250  12.0036561
       382   1   3   -1.23820    5.6542710   2.9994250  12.0036561
       383   1   3   -1.23820   11.3111252   2.9994250  12.0036561
       384   1   3   -1.23820   16.9679793   2.9994250  12.0036561
       385   1   3   -1.23820   22.6248335   2.9994250  12.0036561
       386   1   3   -1.23820   28.2816876   2.9994250  12.0036561
       387   1   3   -1.23820   33.9385418   2.9994250  12.0036561
       388   1   3   -1.23820   39.5953959   2.9994250  12.0036561
       389   1   3   -1.23820   45.2522501   2.9994250  12.0036561
       390   1   3   -1.23820   50.9091042   2.9994250  12.0036561
       391   1   3   -1.23820   -0.0025831   8.6562792  12.0036561
       392   1   3   -1.23820    5.6542710   8.6562792  12.0036561
       393   1   3   -1.23820   11.3111252   8.6562792  12.0036561
       394   1   3   -1.23820   16.9679793   8.6562792  12.0036561
       395   1   3   -1.23820   22.6248335   8.6562792  12.0036561
       396   1   3   -1.23820   28.2816876   8.6562792  12.0036561
       397   1   3   -1.23820   33.9385418   8.6562792  12.0036561
       398   1   3   -1.23820   39.5953959   8.6562792  12.0036561
       399   1   3   -1.23820   45.2522501   8.6562792  12.0036561
       400   1   3   -1.23820   50.9091042   8.6562792  12.0036561
       401   1   3   -1.23820    2.8271347   0.0854990  -0.0006092
       402   1   3   -1.23820    8.4839889   0.0854990  -0.0006092
       403   1   3   -1.23820   14.1408430   0.0854990  -0.0006092
       404   1   3   -1.23820   19.7976972   0.0854990  -0.0006092
       405   1   3   -1.23820   25.4545513   0.0854990  -0.0006092
       406   1   3   -1.23820   31.1114055   0.0854990  -0.0006092
       407   1   3   -1.23820   36.7682596   0.0854990  -0.0006092
       408   1   3   -1.23820   42.4251138   0.0854990  -0.0006092
       409   1   3   -1.23820   48.0819679   0.0854990  -0.0006092
       410   1   3   -1.23820   53.7388221   0.0854990  -0.0006092
       411   1   3   -1.23820    2.8271347   5.7423531  -0.0006092
       412   1   3   -1.23820    8.4839889   5.7423531  -0.0006092
       413   1   3   -1.23820   14.1408430   5.7423531  -0.0006092
       414   1   3   -1.23820   19.7976972   5.7423531  -0.0006092
       415   1   3   -1.23820   25.4545513   5.7423531  -0.0006092
       416   1   3   -1.23820   31.1114055   5.7423531  -0.0006092
       417   1   3   -1.23820   36.7682596   5.7423531  -0.0006092
       418   1   3   -1.23820   42.4251138   5.7423531  -0.0006092
       419   1   3   -1.23820   48.0819679   5.7423531  -0.0006092
       420   1   3   -1.23820   53.7388221   5.7423531  -0.0006092
       421   1   3   -1.23820    2.8258440  -0.1709980   4.0036561
       422   1   3   -1.23820    8.4826981  -0.1709980   4.0036561
       423   1   3   -1.23820   14.1395523  -0.1709980   4.0036561
       424   1   3   -1.23820   19.7964064  -0.1709980   4.0036561
       425   1   3   -1.23820   25.4532606  -0.1709980   4.0036561
       426   1   3   -1.23820   31.1101147  -0.1709980   4.0036561
       427   1   3   -1.23820   36.7669689  -0.1709980   4.0036561
       428   1   3   -1.23820   42.4238230  -0.1709980   4.0036561
       429   1   3   -1.23820   48.0806772  -0.1709980   4.0036561
       430   1   3   -1.23820   53.7375313  -0.1709980   4.0036561
       431   1   3   -1.23820    2.8258440   5.4858562   4.0036561
       432   1   3   -1.23820    8.4826981   5.4858562   4.0036561
       433   1   3   -1.23820   14.1395523   5.4858562   4.0036561
       434   1   3   -1.23820   19.7964064   5.4858562   4.0036561
       435   1   3   -1.23820   25.4532606   5.4858562   4.0036561
       436   1   3   -1.23820   31.1101147   5.4858562   4.0036561
       437   1   3   -1.23820   36.7669689   5.4858562   4.0036561
       438   1   3   -1.23820   42.4238230   5.4858562   4.0036561
       439   1   3   -1.23820   48.0806772   5.4858562   4.0036561
       440   1   3   -1.23820   53.7375313   5.4858562   4.0036561
       441   1   3   -1.23820    2.8258440   0.1709980   8.0036561
       442   1   3   -1.23820    8.4826981   0.1709980   8.0036561
       443   1   3   -1.23820   14.1395523   0.1709980   8.0036561
       444   1   3   -1.23820   19.7964064   0.1709980   8.0036561