 #LAMMPS ABO3 domain
   
     5000 atoms
 3  atom types
   
 0.0    40.00000  xlo xhi
 0.0    40.00000  ylo yhi
 0.0    40.00000  zlo zhi
   
 Masses
   
 1   208.98039
 2    55.84500
 3    15.99940
  
   
 Atoms
   
         1   1   1    1.93753    0.3175427   0.3175427   0.3175427
         2   1   1    1.93753    4.3175427   0.3175427   0.3175427
         3   1   1    1.93753    8.3175427   0.3175427   0.3175427
         4   1   1    1.93753   12.3175427   0.3175427   0.3175427
         5   1   1    1.93753   16.3175427   0.3175427   0.3175427
         6   1   1    1.93753   20.3175427   0.3175427   0.3175427
         7   1   1    1.93753   24.3175427   0.3175427   0.3175427
         8   1   1    1.93753   28.3175427   0.3175427   0.3175427
         9   1   1    1.93753   32.3175427   0.3175427   0.3175427
        10   1   1    1.93753   36.3175427   0.3175427   0.3175427
        11   1   1    1.93753    0.3175427   4.3175427   0.3175427
        12   1   1    1.93753    4.3175427   4.3175427   0.3175427
        13   1   1    1.93753    8.3175427   4.3175427   0.3175427
        14   1   1    1.93753   12.3175427   4.3175427   0.3175427
        15   1   1    1.93753   16.3175427   4.3175427   0.3175427
        16   1   1    1.93753   20.3175427   4.3175427   0.3175427
        17   1   1    1.93753   24.3175427   4.3175427   0.3175427
        18   1   1    1.93753   28.3175427   4.3175427   0.3175427
        19   1   1    1.93753   32.3175427   4.3175427   0.3175427
        20   1   1    1.93753   36.3175427   4.3175427   0.3175427
        21   1   1    1.93753    0.3175427   8.3175427   0.3175427
        22   1   1    1.93753    4.3175427   8.3175427   0.3175427
        23   1   1    1.93753    8.3175427   8.3175427   0.3175427
        24   1   1    1.93753   12.3175427   8.3175427   0.3175427
        25   1   1    1.93753   16.3175427   8.3175427   0.3175427
        26   1   1    1.93753   20.3175427   8.3175427   0.3175427
        27   1   1    1.93753   24.3175427   8.3175427   0.3175427
        28   1   1    1.93753   28.3175427   8.3175427   0.3175427
        29   1   1    1.93753   32.3175427   8.3175427   0.3175427
        30   1   1    1.93753   36.3175427   8.3175427   0.3175427
        31   1   1    1.93753    0.3175427  12.3175427   0.3175427
        32   1   1    1.93753    4.3175427  12.3175427   0.3175427
        33   1   1    1.93753    8.3175427  12.3175427   0.3175427
        34   1   1    1.93753   12.3175427  12.3175427   0.3175427
        35   1   1    1.93753   16.3175427  12.3175427   0.3175427
        36   1   1    1.93753   20.3175427  12.3175427   0.3175427
        37   1   1    1.93753   24.3175427  12.3175427   0.3175427
        38   1   1    1.93753   28.3175427  12.3175427   0.3175427
        39   1   1    1.93753   32.3175427  12.3175427   0.3175427
        40   1   1    1.93753   36.3175427  12.3175427   0.3175427
        41   1   1    1.93753    0.3175427  16.3175427   0.3175427
        42   1   1    1.93753    4.3175427  16.3175427   0.3175427
        43   1   1    1.93753    8.3175427  16.3175427   0.3175427
        44   1   1    1.93753   12.3175427  16.3175427   0.3175427
        45   1   1    1.93753   16.3175427  16.3175427   0.3175427
        46   1   1    1.93753   20.3175427  16.3175427   0.3175427
        47   1   1    1.93753   24.3175427  16.3175427   0.3175427
        48   1   1    1.93753   28.3175427  16.3175427   0.3175427
        49   1   1    1.93753   32.3175427  16.3175427   0.3175427
        50   1   1    1.93753   36.3175427  16.3175427   0.3175427
        51   1   1    1.93753    0.3175427  20.3175427   0.3175427
        52   1   1    1.93753    4.3175427  20.3175427   0.3175427
        53   1   1    1.93753    8.3175427  20.3175427   0.3175427
        54   1   1    1.93753   12.3175427  20.3175427   0.3175427
        55   1   1    1.93753   16.3175427  20.3175427   0.3175427
        56   1   1    1.93753   20.3175427  20.3175427   0.3175427
        57   1   1    1.93753   24.3175427  20.3175427   0.3175427
        58   1   1    1.93753   28.3175427  20.3175427   0.3175427
        59   1   1    1.93753   32.3175427  20.3175427   0.3175427
        60   1   1    1.93753   36.3175427  20.3175427   0.3175427
        61   1   1    1.93753    0.3175427  24.3175427   0.3175427
        62   1   1    1.93753    4.3175427  24.3175427   0.3175427
        63   1   1    1.93753    8.3175427  24.3175427   0.3175427
        64   1   1    1.93753   12.3175427  24.3175427   0.3175427
        65   1   1    1.93753   16.3175427  24.3175427   0.3175427
        66   1   1    1.93753   20.3175427  24.3175427   0.3175427
        67   1   1    1.93753   24.3175427  24.3175427   0.3175427
        68   1   1    1.93753   28.3175427  24.3175427   0.3175427
        69   1   1    1.93753   32.3175427  24.3175427   0.3175427
        70   1   1    1.93753   36.3175427  24.3175427   0.3175427
        71   1   1    1.93753    0.3175427  28.3175427   0.3175427
        72   1   1    1.93753    4.3175427  28.3175427   0.3175427
        73   1   1    1.93753    8.3175427  28.3175427   0.3175427
        74   1   1    1.93753   12.3175427  28.3175427   0.3175427
        75   1   1    1.93753   16.3175427  28.3175427   0.3175427
        76   1   1    1.93753   20.3175427  28.3175427   0.3175427
        77   1   1    1.93753   24.3175427  28.3175427   0.3175427
        78   1   1    1.93753   28.3175427  28.3175427   0.3175427
        79   1   1    1.93753   32.3175427  28.3175427   0.3175427
        80   1   1    1.93753   36.3175427  28.3175427   0.3175427
        81   1   1    1.93753    0.3175427  32.3175427   0.3175427
        82   1   1    1.93753    4.3175427  32.3175427   0.3175427
        83   1   1    1.93753    8.3175427  32.3175427   0.3175427
        84   1   1    1.93753   12.3175427  32.3175427   0.3175427
        85   1   1    1.93753   16.3175427  32.3175427   0.3175427
        86   1   1    1.93753   20.3175427  32.3175427   0.3175427
        87   1   1    1.93753   24.3175427  32.3175427   0.3175427
        88   1   1    1.93753   28.3175427  32.3175427   0.3175427
        89   1   1    1.93753   32.3175427  32.3175427   0.3175427
        90   1   1    1.93753   36.3175427  32.3175427   0.3175427
        91   1   1    1.93753    0.3175427  36.3175427   0.3175427
        92   1   1    1.93753    4.3175427  36.3175427   0.3175427
        93   1   1    1.93753    8.3175427  36.3175427   0.3175427
        94   1   1    1.93753   12.3175427  36.3175427   0.3175427
        95   1   1    1.93753   16.3175427  36.3175427   0.3175427
        96   1   1    1.93753   20.3175427  36.3175427   0.3175427
        97   1   1    1.93753   24.3175427  36.3175427   0.3175427
        98   1   1    1.93753   28.3175427  36.3175427   0.3175427
        99   1   1    1.93753   32.3175427  36.3175427   0.3175427
       100   1   1    1.93753   36.3175427  36.3175427   0.3175427
       101   1   1    1.93753    0.3175427   0.3175427   4.3175427
       102   1   1    1.93753    4.3175427   0.3175427   4.3175427
       103   1   1    1.93753    8.3175427   0.3175427   4.3175427
       104   1   1    1.93753   12.3175427   0.3175427   4.3175427
       105   1   1    1.93753   16.3175427   0.3175427   4.3175427
       106   1   1    1.93753   20.3175427   0.3175427   4.3175427
       107   1   1    1.93753   24.3175427   0.3175427   4.3175427
       108   1   1    1.93753   28.3175427   0.3175427   4.3175427
       109   1   1    1.93753   32.3175427   0.3175427   4.3175427
       110   1   1    1.93753   36.3175427   0.3175427   4.3175427
       111   1   1    1.93753    0.3175427   4.3175427   4.3175427
       112   1   1    1.93753    4.3175427   4.3175427   4.3175427
       113   1   1    1.93753    8.3175427   4.3175427   4.3175427
       114   1   1    1.93753   12.3175427   4.3175427   4.3175427
       115   1   1    1.93753   16.3175427   4.3175427   4.3175427
       116   1   1    1.93753   20.3175427   4.3175427   4.3175427
       117   1   1    1.93753   24.3175427   4.3175427   4.3175427
       118   1   1    1.93753   28.3175427   4.3175427   4.3175427
       119   1   1    1.93753   32.3175427   4.3175427   4.3175427
       120   1   1    1.93753   36.3175427   4.3175427   4.3175427
       121   1   1    1.93753    0.3175427   8.3175427   4.3175427
       122   1   1    1.93753    4.3175427   8.3175427   4.3175427
       123   1   1    1.93753    8.3175427   8.3175427   4.3175427
       124   1   1    1.93753   12.3175427   8.3175427   4.3175427
       125   1   1    1.93753   16.3175427   8.3175427   4.3175427
       126   1   1    1.93753   20.3175427   8.3175427   4.3175427
       127   1   1    1.93753   24.3175427   8.3175427   4.3175427
       128   1   1    1.93753   28.3175427   8.3175427   4.3175427
       129   1   1    1.93753   32.3175427   8.3175427   4.3175427
       130   1   1    1.93753   36.3175427   8.3175427   4.3175427
       131   1   1    1.93753    0.3175427  12.3175427   4.3175427
       132   1   1    1.93753    4.3175427  12.3175427   4.3175427
       133   1   1    1.93753    8.3175427  12.3175427   4.3175427
       134   1   1    1.93753   12.3175427  12.3175427   4.3175427
       135   1   1    1.93753   16.3175427  12.3175427   4.3175427
       136   1   1    1.93753   20.3175427  12.3175427   4.3175427
       137   1   1    1.93753   24.3175427  12.3175427   4.3175427
       138   1   1    1.93753   28.3175427  12.3175427   4.3175427
       139   1   1    1.93753   32.3175427  12.3175427   4.3175427
       140   1   1    1.93753   36.3175427  12.3175427   4.3175427
       141   1   1    1.93753    0.3175427  16.3175427   4.3175427
       142   1   1    1.93753    4.3175427  16.3175427   4.3175427
       143   1   1    1.93753    8.3175427  16.3175427   4.3175427
       144   1   1    1.93753   12.3175427  16.3175427   4.3175427
       145   1   1    1.93753   16.3175427  16.3175427   4.3175427
       146   1   1    1.93753   20.3175427  16.3175427   4.3175427
       147   1   1    1.93753   24.3175427  16.3175427   4.3175427
       148   1   1    1.93753   28.3175427  16.3175427   4.3175427
       149   1   1    1.93753   32.3175427  16.3175427   4.3175427
       150   1   1    1.93753   36.3175427  16.3175427   4.3175427
       151   1   1    1.93753    0.3175427  20.3175427   4.3175427
       152   1   1    1.93753    4.3175427  20.3175427   4.3175427
       153   1   1    1.93753    8.3175427  20.3175427   4.3175427
       154   1   1    1.93753   12.3175427  20.3175427   4.3175427
       155   1   1    1.93753   16.3175427  20.3175427   4.3175427
       156   1   1    1.93753   20.3175427  20.3175427   4.3175427
       157   1   1    1.93753   24.3175427  20.3175427   4.3175427
       158   1   1    1.93753   28.3175427  20.3175427   4.3175427
       159   1   1    1.93753   32.3175427  20.3175427   4.3175427
       160   1   1    1.93753   36.3175427  20.3175427   4.3175427
       161   1   1    1.93753    0.3175427  24.3175427   4.3175427
       162   1   1    1.93753    4.3175427  24.3175427   4.3175427
       163   1   1    1.93753    8.3175427  24.3175427   4.3175427
       164   1   1    1.93753   12.3175427  24.3175427   4.3175427
       165   1   1    1.93753   16.3175427  24.3175427   4.3175427
       166   1   1    1.93753   20.3175427  24.3175427   4.3175427
       167   1   1    1.93753   24.3175427  24.3175427   4.3175427
       168   1   1    1.93753   28.3175427  24.3175427   4.3175427
       169   1   1    1.93753   32.3175427  24.3175427   4.3175427
       170   1   1    1.93753   36.3175427  24.3175427   4.3175427
       171   1   1    1.93753    0.3175427  28.3175427   4.3175427
       172   1   1    1.93753    4.3175427  28.3175427   4.3175427
       173   1   1    1.93753    8.3175427  28.3175427   4.3175427
       174   1   1    1.93753   12.3175427  28.3175427   4.3175427
       175   1   1    1.93753   16.3175427  28.3175427   4.3175427
       176   1   1    1.93753   20.3175427  28.3175427   4.3175427
       177   1   1    1.93753   24.3175427  28.3175427   4.3175427
       178   1   1    1.93753   28.3175427  28.3175427   4.3175427
       179   1   1    1.93753   32.3175427  28.3175427   4.3175427
       180   1   1    1.93753   36.3175427  28.3175427   4.3175427
       181   1   1    1.93753    0.3175427  32.3175427   4.3175427
       182   1   1    1.93753    4.3175427  32.3175427   4.3175427
       183   1   1    1.93753    8.3175427  32.3175427   4.3175427
       184   1   1    1.93753   12.3175427  32.3175427   4.3175427
       185   1   1    1.93753   16.3175427  32.3175427   4.3175427
       186   1   1    1.93753   20.3175427  32.3175427   4.3175427
       187   1   1    1.93753   24.3175427  32.3175427   4.3175427
       188   1   1    1.93753   28.3175427  32.3175427   4.3175427
       189   1   1    1.93753   32.3175427  32.3175427   4.3175427
       190   1   1    1.93753   36.3175427  32.3175427   4.3175427
       191   1   1    1.93753    0.3175427  36.3175427   4.3175427
       192   1   1    1.93753    4.3175427  36.3175427   4.3175427
       193   1   1    1.93753    8.3175427  36.3175427   4.3175427
       194   1   1    1.93753   12.3175427  36.3175427   4.3175427
       195   1   1    1.93753   16.3175427  36.3175427   4.3175427
       196   1   1    1.93753   20.3175427  36.3175427   4.3175427
       197   1   1    1.93753   24.3175427  36.3175427   4.3175427
       198   1   1    1.93753   28.3175427  36.3175427   4.3175427
       199   1   1    1.93753   32.3175427  36.3175427   4.3175427
       200   1   1    1.93753   36.3175427  36.3175427   4.3175427
       201   1   1    1.93753    0.3175427   0.3175427   8.3175427
       202   1   1    1.93753    4.3175427   0.3175427   8.3175427
       203   1   1    1.93753    8.3175427   0.3175427   8.3175427
       204   1   1    1.93753   12.3175427   0.3175427   8.3175427
       205   1   1    1.93753   16.3175427   0.3175427   8.3175427
       206   1   1    1.93753   20.3175427   0.3175427   8.3175427
       207   1   1    1.93753   24.3175427   0.3175427   8.3175427
       208   1   1    1.93753   28.3175427   0.3175427   8.3175427
       209   1   1    1.93753   32.3175427   0.3175427   8.3175427
       210   1   1    1.93753   36.3175427   0.3175427   8.3175427
       211   1   1    1.93753    0.3175427   4.3175427   8.3175427
       212   1   1    1.93753    4.3175427   4.3175427   8.3175427
       213   1   1    1.93753    8.3175427   4.3175427   8.3175427
       214   1   1    1.93753   12.3175427   4.3175427   8.3175427
       215   1   1    1.93753   16.3175427   4.3175427   8.3175427
       216   1   1    1.93753   20.3175427   4.3175427   8.3175427
       217   1   1    1.93753   24.3175427   4.3175427   8.3175427
       218   1   1    1.93753   28.3175427   4.3175427   8.3175427
       219   1   1    1.93753   32.3175427   4.3175427   8.3175427
       220   1   1    1.93753   36.3175427   4.3175427   8.3175427
       221   1   1    1.93753    0.3175427   8.3175427   8.3175427
       222   1   1    1.93753    4.3175427   8.3175427   8.3175427
       223   1   1    1.93753    8.3175427   8.3175427   8.3175427
       224   1   1    1.93753   12.3175427   8.3175427   8.3175427
       225   1   1    1.93753   16.3175427   8.3175427   8.3175427
       226   1   1    1.93753   20.3175427   8.3175427   8.3175427
       227   1   1    1.93753   24.3175427   8.3175427   8.3175427
       228   1   1    1.93753   28.3175427   8.3175427   8.3175427
       229   1   1    1.93753   32.3175427   8.3175427   8.3175427
       230   1   1    1.93753   36.3175427   8.3175427   8.3175427
       231   1   1    1.93753    0.3175427  12.3175427   8.3175427
       232   1   1    1.93753    4.3175427  12.3175427   8.3175427
       233   1   1    1.93753    8.3175427  12.3175427   8.3175427
       234   1   1    1.93753   12.3175427  12.3175427   8.3175427
       235   1   1    1.93753   16.3175427  12.3175427   8.3175427
       236   1   1    1.93753   20.3175427  12.3175427   8.3175427
       237   1   1    1.93753   24.3175427  12.3175427   8.3175427
       238   1   1    1.93753   28.3175427  12.3175427   8.3175427
       239   1   1    1.93753   32.3175427  12.3175427   8.3175427
       240   1   1    1.93753   36.3175427  12.3175427   8.3175427
       241   1   1    1.93753    0.3175427  16.3175427   8.3175427
       242   1   1    1.93753    4.3175427  16.3175427   8.3175427
       243   1   1    1.93753    8.3175427  16.3175427   8.3175427
       244   1   1    1.93753   12.3175427  16.3175427   8.3175427
       245   1   1    1.93753   16.3175427  16.3175427   8.3175427
       246   1   1    1.93753   20.3175427  16.3175427   8.3175427
       247   1   1    1.93753   24.3175427  16.3175427   8.3175427
       248   1   1    1.93753   28.3175427  16.3175427   8.3175427
       249   1   1    1.93753   32.3175427  16.3175427   8.3175427
       250   1   1    1.93753   36.3175427  16.3175427   8.3175427
       251   1   1    1.93753    0.3175427  20.3175427   8.3175427
       252   1   1    1.93753    4.3175427  20.3175427   8.3175427
       253   1   1    1.93753    8.3175427  20.3175427   8.3175427
       254   1   1    1.93753   12.3175427  20.3175427   8.3175427
       255   1   1    1.93753   16.3175427  20.3175427   8.3175427
       256   1   1    1.93753   20.3175427  20.3175427   8.3175427
       257   1   1    1.93753   24.3175427  20.3175427   8.3175427
       258   1   1    1.93753   28.3175427  20.3175427   8.3175427
       259   1   1    1.93753   32.3175427  20.3175427   8.3175427
       260   1   1    1.93753   36.3175427  20.3175427   8.3175427
       261   1   1    1.93753    0.3175427  24.3175427   8.3175427
       262   1   1    1.93753    4.3175427  24.3175427   8.3175427
       263   1   1    1.93753    8.3175427  24.3175427   8.3175427
       264   1   1    1.93753   12.3175427  24.3175427   8.3175427
       265   1   1    1.93753   16.3175427  24.3175427   8.3175427
       266   1   1    1.93753   20.3175427  24.3175427   8.3175427
       267   1   1    1.93753   24.3175427  24.3175427   8.3175427
       268   1   1    1.93753   28.3175427  24.3175427   8.3175427
       269   1   1    1.93753   32.3175427  24.3175427   8.3175427
       270   1   1    1.93753   36.3175427  24.3175427   8.3175427
       271   1   1    1.93753    0.3175427  28.3175427   8.3175427
       272   1   1    1.93753    4.3175427  28.3175427   8.3175427
       273   1   1    1.93753    8.3175427  28.3175427   8.3175427
       274   1   1    1.93753   12.3175427  28.3175427   8.3175427
       275   1   1    1.93753   16.3175427  28.3175427   8.3175427
       276   1   1    1.93753   20.3175427  28.3175427   8.3175427
       277   1   1    1.93753   24.3175427  28.3175427   8.3175427
       278   1   1    1.93753   28.3175427  28.3175427   8.3175427
       279   1   1    1.93753   32.3175427  28.3175427   8.3175427
       280   1   1    1.93753   36.3175427  28.3175427   8.3175427
       281   1   1    1.93753    0.3175427  32.3175427   8.3175427
       282   1   1    1.93753    4.3175427  32.3175427   8.3175427
       283   1   1    1.93753    8.3175427  32.3175427   8.3175427
       284   1   1    1.93753   12.3175427  32.3175427   8.3175427
       285   1   1    1.93753   16.3175427  32.3175427   8.3175427
       286   1   1    1.93753   20.3175427  32.3175427   8.3175427
       287   1   1    1.93753   24.3175427  32.3175427   8.3175427
       288   1   1    1.93753   28.3175427  32.3175427   8.3175427
       289   1   1    1.93753   32.3175427  32.3175427   8.3175427
       290   1   1    1.93753   36.3175427  32.3175427   8.3175427
       291   1   1    1.93753    0.3175427  36.3175427   8.3175427
       292   1   1    1.93753    4.3175427  36.3175427   8.3175427
       293   1   1    1.93753    8.3175427  36.3175427   8.3175427
       294   1   1    1.93753   12.3175427  36.3175427   8.3175427
       295   1   1    1.93753   16.3175427  36.3175427   8.3175427
       296   1   1    1.93753   20.3175427  36.3175427   8.3175427
       297   1   1    1.93753   24.3175427  36.3175427   8.3175427
       298   1   1    1.93753   28.3175427  36.3175427   8.3175427
       299   1   1    1.93753   32.3175427  36.3175427   8.3175427
       300   1   1    1.93753   36.3175427  36.3175427   8.3175427
       301   1   1    1.93753    0.3175427   0.3175427  12.3175427
       302   1   1    1.93753    4.3175427   0.3175427  12.3175427
       303   1   1    1.93753    8.3175427   0.3175427  12.3175427
       304   1   1    1.93753   12.3175427   0.3175427  12.3175427
       305   1   1    1.93753   16.3175427   0.3175427  12.3175427
       306   1   1    1.93753   20.3175427   0.3175427  12.3175427
       307   1   1    1.93753   24.3175427   0.3175427  12.3175427
       308   1   1    1.93753   28.3175427   0.3175427  12.3175427
       309   1   1    1.93753   32.3175427   0.3175427  12.3175427
       310   1   1    1.93753   36.3175427   0.3175427  12.3175427
       311   1   1    1.93753    0.3175427   4.3175427  12.3175427
       312   1   1    1.93753    4.3175427   4.3175427  12.3175427
       313   1   1    1.93753    8.3175427   4.3175427  12.3175427
       314   1   1    1.93753   12.3175427   4.3175427  12.3175427
       315   1   1    1.93753   16.3175427   4.3175427  12.3175427
       316   1   1    1.93753   20.3175427   4.3175427  12.3175427
       317   1   1    1.93753   24.3175427   4.3175427  12.3175427
       318   1   1    1.93753   28.3175427   4.3175427  12.3175427
       319   1   1    1.93753   32.3175427   4.3175427  12.3175427
       320   1   1    1.93753   36.3175427   4.3175427  12.3175427
       321   1   1    1.93753    0.3175427   8.3175427  12.3175427
       322   1   1    1.93753    4.3175427   8.3175427  12.3175427
       323   1   1    1.93753    8.3175427   8.3175427  12.3175427
       324   1   1    1.93753   12.3175427   8.3175427  12.3175427
       325   1   1    1.93753   16.3175427   8.3175427  12.3175427
       326   1   1    1.93753   20.3175427   8.3175427  12.3175427
       327   1   1    1.93753   24.3175427   8.3175427  12.3175427
       328   1   1    1.93753   28.3175427   8.3175427  12.3175427
       329   1   1    1.93753   32.3175427   8.3175427  12.3175427
       330   1   1    1.93753   36.3175427   8.3175427  12.3175427
       331   1   1    1.93753    0.3175427  12.3175427  12.3175427
       332   1   1    1.93753    4.3175427  12.3175427  12.3175427
       333   1   1    1.93753    8.3175427  12.3175427  12.3175427
       334   1   1    1.93753   12.3175427  12.3175427  12.3175427
       335   1   1    1.93753   16.3175427  12.3175427  12.3175427
       336   1   1    1.93753   20.3175427  12.3175427  12.3175427
       337   1   1    1.93753   24.3175427  12.3175427  12.3175427
       338   1   1    1.93753   28.3175427  12.3175427  12.3175427
       339   1   1    1.93753   32.3175427  12.3175427  12.3175427
       340   1   1    1.93753   36.3175427  12.3175427  12.3175427
       341   1   1    1.93753    0.3175427  16.3175427  12.3175427
       342   1   1    1.93753    4.3175427  16.3175427  12.3175427
       343   1   1    1.93753    8.3175427  16.3175427  12.3175427
       344   1   1    1.93753   12.3175427  16.3175427  12.3175427
       345   1   1    1.93753   16.3175427  16.3175427  12.3175427
       346   1   1    1.93753   20.3175427  16.3175427  12.3175427
       347   1   1    1.93753   24.3175427  16.3175427  12.3175427
       348   1   1    1.93753   28.3175427  16.3175427  12.3175427
       349   1   1    1.93753   32.3175427  16.3175427  12.3175427
       350   1   1    1.93753   36.3175427  16.3175427  12.3175427
       351   1   1    1.93753    0.3175427  20.3175427  12.3175427
       352   1   1    1.93753    4.3175427  20.3175427  12.3175427
       353   1   1    1.93753    8.3175427  20.3175427  12.3175427
       354   1   1    1.93753   12.3175427  20.3175427  12.3175427
       355   1   1    1.93753   16.3175427  20.3175427  12.3175427
       356   1   1    1.93753   20.3175427  20.3175427  12.3175427
       357   1   1    1.93753   24.3175427  20.3175427  12.3175427
       358   1   1    1.93753   28.3175427  20.3175427  12.3175427
       359   1   1    1.93753   32.3175427  20.3175427  12.3175427
       360   1   1    1.93753   36.3175427  20.3175427  12.3175427
       361   1   1    1.93753    0.3175427  24.3175427  12.3175427
       362   1   1    1.93753    4.3175427  24.3175427  12.3175427
       363   1   1    1.93753    8.3175427  24.3175427  12.3175427
       364   1   1    1.93753   12.3175427  24.3175427  12.3175427
       365   1   1    1.93753   16.3175427  24.3175427  12.3175427
       366   1   1    1.93753   20.3175427  24.3175427  12.3175427
       367   1   1    1.93753   24.3175427  24.3175427  12.3175427
       368   1   1    1.93753   28.3175427  24.3175427  12.3175427
       369   1   1    1.93753   32.3175427  24.3175427  12.3175427
       370   1   1    1.93753   36.3175427  24.3175427  12.3175427
       371   1   1    1.93753    0.3175427  28.3175427  12.3175427
       372   1   1    1.93753    4.3175427  28.3175427  12.3175427
       373   1   1    1.93753    8.3175427  28.3175427  12.3175427
       374   1   1    1.93753   12.3175427  28.3175427  12.3175427
       375   1   1    1.93753   16.3175427  28.3175427  12.3175427
       376   1   1    1.93753   20.3175427  28.3175427  12.3175427
       377   1   1    1.93753   24.3175427  28.3175427  12.3175427
       378   1   1    1.93753   28.3175427  28.3175427  12.3175427
       379   1   1    1.93753   32.3175427  28.3175427  12.3175427
       380   1   1    1.93753   36.3175427  28.3175427  12.3175427
       381   1   1    1.93753    0.3175427  32.3175427  12.3175427
       382   1   1    1.93753    4.3175427  32.3175427  12.3175427
       383   1   1    1.93753    8.3175427  32.3175427  12.3175427
       384   1   1    1.93753   12.3175427  32.3175427  12.3175427
       385   1   1    1.93753   16.3175427  32.3175427  12.3175427
       386   1   1    1.93753   20.3175427  32.3175427  12.3175427
       387   1   1    1.93753   24.3175427  32.3175427  12.3175427
       388   1   1    1.93753   28.3175427  32.3175427  12.3175427
       389   1   1    1.93753   32.3175427  32.3175427  12.3175427
       390   1   1    1.93753   36.3175427  32.3175427  12.3175427
       391   1   1    1.93753    0.3175427  36.3175427  12.3175427
       392   1   1    1.93753    4.3175427  36.3175427  12.3175427
       393   1   1    1.93753    8.3175427  36.3175427  12.3175427
       394   1   1    1.93753   12.3175427  36.3175427  12.3175427
       395   1   1    1.93753   16.3175427  36.3175427  12.3175427
       396   1   1    1.93753   20.3175427  36.3175427  12.3175427
       397   1   1    1.93753   24.3175427  36.3175427  12.3175427
       398   1   1    1.93753   28.3175427  36.3175427  12.3175427
       399   1   1    1.93753   32.3175427  36.3175427  12.3175427
       400   1   1    1.93753   36.3175427  36.3175427  12.3175427
       401   1   1    1.93753    0.3175427   0.3175427  16.3175427
       402   1   1    1.93753    4.3175427   0.3175427  16.3175427
       403   1   1    1.93753    8.3175427   0.3175427  16.3175427
       404   1   1    1.93753   12.3175427   0.3175427  16.3175427
       405   1   1    1.93753   16.3175427   0.3175427  16.3175427
       406   1   1    1.93753   20.3175427   0.3175427  16.3175427
       407   1   1    1.93753   24.3175427   0.3175427  16.3175427
       408   1   1    1.93753   28.3175427   0.3175427  16.3175427
       409   1   1    1.93753   32.3175427   0.3175427  16.3175427
       410   1   1    1.93753   36.3175427   0.3175427  16.3175427
       411   1   1    1.93753    0.3175427   4.3175427  16.3175427
       412   1   1    1.93753    4.3175427   4.3175427  16.3175427
       413   1   1    1.93753    8.3175427   4.3175427  16.3175427
       414   1   1    1.93753   12.3175427   4.3175427  16.3175427
       415   1   1    1.93753   16.3175427   4.3175427  16.3175427
       416   1   1    1.93753   20.3175427   4.3175427  16.3175427
       417   1   1    1.93753   24.3175427   4.3175427  16.3175427
       418   1   1    1.93753   28.3175427   4.3175427  16.3175427
       419   1   1    1.93753   32.3175427   4.3175427  16.3175427
       420   1   1    1.93753   36.3175427   4.3175427  16.3175427
       421   1   1    1.93753    0.3175427   8.3175427  16.3175427
       422   1   1    1.93753    4.3175427   8.3175427  16.3175427
       423   1   1    1.93753    8.3175427   8.3175427  16.3175427
       424   1   1    1.93753   12.3175427   8.3175427  16.3175427
       425   1   1    1.93753   16.3175427   8.3175427  16.3175427
       426   1   1    1.93753   20.3175427   8.3175427  16.3175427
       427   1   1    1.93753   24.3175427   8.3175427  16.3175427
       428   1   1    1.93753   28.3175427   8.3175427  16.3175427
       429   1   1    1.93753   32.3175427   8.3175427  16.3175427
       430   1   1    1.93753   36.3175427   8.3175427  16.3175427
       431   1   1    1.93753    0.3175427  12.3175427  16.3175427
       432   1   1    1.93753    4.3175427  12.3175427  16.3175427
       433   1   1    1.93753    8.3175427  12.3175427  16.3175427
       434   1   1    1.93753   12.3175427  12.3175427  16.3175427
       435   1   1    1.93753   16.3175427  12.3175427  16.3175427
       436   1   1    1.93753   20.3175427  12.3175427  16.3175427
       437   1   1    1.93753   24.3175427  12.3175427  16.3175427
       438   1   1    1.93753   28.3175427  12.3175427  16.3175427
       439   1   1    1.93753   32.3175427  12.3175427  16.3175427
       440   1   1    1.93753   36.3175427  12.3175427  16.3175427
       441   1   1    1.93753    0.3175427  16.3175427  16.3175427
       442   1   1    1.93753    4.3175427  16.3175427  16.3175427
       443   1   1    1.93753    8.3175427  16.3175427  16.3175427
       444   1   1    1.93753   12.3175427  16.3175427  16.3175427