# LAMMPS ABO3 data file

  40 atoms
4  atom types

0.0    11.8972616196  xlo xhi
0.0    11.8972616196  ylo yhi
0.0    11.8972616196  zlo zhi

Masses

1   207.2
2   24.305
3   183.84
4   15.9994


Atoms

1 1 1   1.77706000   8.92294621   8.92294621   8.92294621
2 1 1   1.77706000   8.92294621   8.92294621   2.97431540
3 1 1   1.77706000   8.92294621   2.97431540   8.92294621
4 1 1   1.77706000   8.92294621   2.97431540   2.97431540
5 1 1   1.77706000   2.97431540   8.92294621   8.92294621
6 1 1   1.77706000   2.97431540   8.92294621   2.97431540
7 1 1   1.77706000   2.97431540   2.97431540   8.92294621
8 1 1   1.77706000   2.97431540   2.97431540   2.97431540
9 1 2   1.93753000   0.00000000   0.00000000   0.00000000
10 1 2   1.93753000   0.00000000   5.94863081   5.94863081
11 1 2   1.93753000   5.94863081   0.00000000   5.94863081
12 1 2   1.93753000   5.94863081   5.94863081   0.00000000
13 1 3   1.93753000   0.00000000   0.00000000   5.94863081
14 1 3   1.93753000   0.00000000   5.94863081   0.00000000
15 1 3   1.93753000   5.94863081   0.00000000   0.00000000
16 1 3   1.93753000   5.94863081   5.94863081   5.94863081
17 1 4  -1.23820000  -0.27985280   0.23573493   8.90035295
18 1 4  -1.23820000   0.27985280  -0.23573493   2.99690867
19 1 4  -1.23820000  -0.27985280   5.71289588   8.90035295
20 1 4  -1.23820000   0.23663165   6.22955228   2.97435847
21 1 4  -1.23820000   6.18329708  -0.28074952   8.90035295
22 1 4  -1.23820000   5.66877801   0.23573493   2.95172214
23 1 4  -1.23820000   6.18329708   6.22938033   8.90035295
24 1 4  -1.23820000   5.71199916   5.66770934   2.97427234
25 1 4  -1.23820000  -0.28074952   8.89838381  -0.25824222
26 1 4  -1.23820000   0.23573493   8.90232208   6.20687303
27 1 4  -1.23820000   0.28074952   2.99887781   0.25824222
28 1 4  -1.23820000  -0.23573493   2.95369127   5.69038858
29 1 4  -1.23820000   6.18436574   8.90232208   0.25824222
30 1 4  -1.23820000   5.66788129   8.89838381   5.69038858
31 1 4  -1.23820000   5.71289588   2.95369127  -0.25824222
32 1 4  -1.23820000   6.22938033   2.99887781   6.20687303
33 1 4  -1.23820000   8.90035295   0.25824222   0.25922867
34 1 4  -1.23820000   8.90035295  -0.25824222   5.68940214
35 1 4  -1.23820000   8.90035295   5.69038858   0.25922867
36 1 4  -1.23820000   8.90035295   6.20687303   5.68940214
37 1 4  -1.23820000   2.99690867  -0.25824222  -0.25922867
38 1 4  -1.23820000   2.95172214   0.25824222   6.20785948
39 1 4  -1.23820000   2.97427234   6.20884592  -0.25922867
40 1 4  -1.23820000   2.97435847   5.68841570   6.20785948
