 #LAMMPS ABO3 domain
   
      400 atoms
      240 angles
 3  atom types
 1 angle types
   
 0.0    11.31371  xlo xhi
 0.0    11.31371  ylo yhi
 0.0    40.00000  zlo zhi
   
 Masses
   
 1   208.98039
 2    55.84500
 3    15.99940
  
   
 Atoms
   
         1   1   1    1.93753      0.000    0.4490731   0.0000000   0.3175427    0    0    0
         2   1   1    1.93753      0.000    6.1059273   0.0000000   0.3175427    0    0    0
         3   1   1    1.93753      0.000    0.4490731   5.6568542   0.3175427    0    0    0
         4   1   1    1.93753      0.000    6.1059273   5.6568542   0.3175427    0    0    0
         5   1   1    1.93753      0.000    0.4490731   0.0000000   4.3175427    0    0    0
         6   1   1    1.93753      0.000    6.1059273   0.0000000   4.3175427    0    0    0
         7   1   1    1.93753      0.000    0.4490731   5.6568542   4.3175427    0    0    0
         8   1   1    1.93753      0.000    6.1059273   5.6568542   4.3175427    0    0    0
         9   1   1    1.93753      0.000    0.4490731   0.0000000   8.3175427    0    0    0
        10   1   1    1.93753      0.000    6.1059273   0.0000000   8.3175427    0    0    0
        11   1   1    1.93753      0.000    0.4490731   5.6568542   8.3175427    0    0    0
        12   1   1    1.93753      0.000    6.1059273   5.6568542   8.3175427    0    0    0
        13   1   1    1.93753      0.000    0.4490731   0.0000000  12.3175427    0    0    0
        14   1   1    1.93753      0.000    6.1059273   0.0000000  12.3175427    0    0    0
        15   1   1    1.93753      0.000    0.4490731   5.6568542  12.3175427    0    0    0
        16   1   1    1.93753      0.000    6.1059273   5.6568542  12.3175427    0    0    0
        17   1   1    1.93753      0.000    0.4490731   0.0000000  16.3175427    0    0    0
        18   1   1    1.93753      0.000    6.1059273   0.0000000  16.3175427    0    0    0
        19   1   1    1.93753      0.000    0.4490731   5.6568542  16.3175427    0    0    0
        20   1   1    1.93753      0.000    6.1059273   5.6568542  16.3175427    0    0    0
        21   1   1    1.93753      0.000   -0.4490731   0.0000000  20.3175427    0    0    0
        22   1   1    1.93753      0.000    5.2077810   0.0000000  20.3175427    0    0    0
        23   1   1    1.93753      0.000   -0.4490731   5.6568542  20.3175427    0    0    0
        24   1   1    1.93753      0.000    5.2077810   5.6568542  20.3175427    0    0    0
        25   1   1    1.93753      0.000   -0.4490731   0.0000000  24.3175427    0    0    0
        26   1   1    1.93753      0.000    5.2077810   0.0000000  24.3175427    0    0    0
        27   1   1    1.93753      0.000   -0.4490731   5.6568542  24.3175427    0    0    0
        28   1   1    1.93753      0.000    5.2077810   5.6568542  24.3175427    0    0    0
        29   1   1    1.93753      0.000   -0.4490731   0.0000000  28.3175427    0    0    0
        30   1   1    1.93753      0.000    5.2077810   0.0000000  28.3175427    0    0    0
        31   1   1    1.93753      0.000   -0.4490731   5.6568542  28.3175427    0    0    0
        32   1   1    1.93753      0.000    5.2077810   5.6568542  28.3175427    0    0    0
        33   1   1    1.93753      0.000   -0.4490731   0.0000000  32.3175427    0    0    0
        34   1   1    1.93753      0.000    5.2077810   0.0000000  32.3175427    0    0    0
        35   1   1    1.93753      0.000   -0.4490731   5.6568542  32.3175427    0    0    0
        36   1   1    1.93753      0.000    5.2077810   5.6568542  32.3175427    0    0    0
        37   1   1    1.93753      0.000   -0.4490731   0.0000000  36.3175427    0    0    0
        38   1   1    1.93753      0.000    5.2077810   0.0000000  36.3175427    0    0    0
        39   1   1    1.93753      0.000   -0.4490731   5.6568542  36.3175427    0    0    0
        40   1   1    1.93753      0.000    5.2077810   5.6568542  36.3175427    0    0    0
        41   1   1    1.93753      0.000    3.2775002   2.8284271   0.3175427    0    0    0
        42   1   1    1.93753      0.000    8.9343544   2.8284271   0.3175427    0    0    0
        43   1   1    1.93753      0.000    3.2775002   8.4852812   0.3175427    0    0    0
        44   1   1    1.93753      0.000    8.9343544   8.4852812   0.3175427    0    0    0
        45   1   1    1.93753      0.000    3.2775002   2.8284271   4.3175427    0    0    0
        46   1   1    1.93753      0.000    8.9343544   2.8284271   4.3175427    0    0    0
        47   1   1    1.93753      0.000    3.2775002   8.4852812   4.3175427    0    0    0
        48   1   1    1.93753      0.000    8.9343544   8.4852812   4.3175427    0    0    0
        49   1   1    1.93753      0.000    3.2775002   2.8284271   8.3175427    0    0    0
        50   1   1    1.93753      0.000    8.9343544   2.8284271   8.3175427    0    0    0
        51   1   1    1.93753      0.000    3.2775002   8.4852812   8.3175427    0    0    0
        52   1   1    1.93753      0.000    8.9343544   8.4852812   8.3175427    0    0    0
        53   1   1    1.93753      0.000    3.2775002   2.8284271  12.3175427    0    0    0
        54   1   1    1.93753      0.000    8.9343544   2.8284271  12.3175427    0    0    0
        55   1   1    1.93753      0.000    3.2775002   8.4852812  12.3175427    0    0    0
        56   1   1    1.93753      0.000    8.9343544   8.4852812  12.3175427    0    0    0
        57   1   1    1.93753      0.000    3.2775002   2.8284271  16.3175427    0    0    0
        58   1   1    1.93753      0.000    8.9343544   2.8284271  16.3175427    0    0    0
        59   1   1    1.93753      0.000    3.2775002   8.4852812  16.3175427    0    0    0
        60   1   1    1.93753      0.000    8.9343544   8.4852812  16.3175427    0    0    0
        61   1   1    1.93753      0.000    2.3793539   2.8284271  20.3175427    0    0    0
        62   1   1    1.93753      0.000    8.0362081   2.8284271  20.3175427    0    0    0
        63   1   1    1.93753      0.000    2.3793539   8.4852812  20.3175427    0    0    0
        64   1   1    1.93753      0.000    8.0362081   8.4852812  20.3175427    0    0    0
        65   1   1    1.93753      0.000    2.3793539   2.8284271  24.3175427    0    0    0
        66   1   1    1.93753      0.000    8.0362081   2.8284271  24.3175427    0    0    0
        67   1   1    1.93753      0.000    2.3793539   8.4852812  24.3175427    0    0    0
        68   1   1    1.93753      0.000    8.0362081   8.4852812  24.3175427    0    0    0
        69   1   1    1.93753      0.000    2.3793539   2.8284271  28.3175427    0    0    0
        70   1   1    1.93753      0.000    8.0362081   2.8284271  28.3175427    0    0    0
        71   1   1    1.93753      0.000    2.3793539   8.4852812  28.3175427    0    0    0
        72   1   1    1.93753      0.000    8.0362081   8.4852812  28.3175427    0    0    0
        73   1   1    1.93753      0.000    2.3793539   2.8284271  32.3175427    0    0    0
        74   1   1    1.93753      0.000    8.0362081   2.8284271  32.3175427    0    0    0
        75   1   1    1.93753      0.000    2.3793539   8.4852812  32.3175427    0    0    0
        76   1   1    1.93753      0.000    8.0362081   8.4852812  32.3175427    0    0    0
        77   1   1    1.93753      0.000    2.3793539   2.8284271  36.3175427    0    0    0
        78   1   1    1.93753      0.000    8.0362081   2.8284271  36.3175427    0    0    0
        79   1   1    1.93753      0.000    2.3793539   8.4852812  36.3175427    0    0    0
        80   1   1    1.93753      0.000    8.0362081   8.4852812  36.3175427    0    0    0
        81   1   2    1.77706      2.500    0.1796293   2.8284271   2.1270171    0    0   -1
        82   1   2    1.77706      2.500    5.8364834   2.8284271   2.1270171    0    0   -1
        83   1   2    1.77706      2.500    0.1796293   8.4852812   2.1270171    0    0   -1
        84   1   2    1.77706      2.500    5.8364834   8.4852812   2.1270171    0    0   -1
        85   1   2    1.77706      2.500    0.1796293   2.8284271   6.1270171    0    0    1
        86   1   2    1.77706      2.500    5.8364834   2.8284271   6.1270171    0    0    1
        87   1   2    1.77706      2.500    0.1796293   8.4852812   6.1270171    0    0    1
        88   1   2    1.77706      2.500    5.8364834   8.4852812   6.1270171    0    0    1
        89   1   2    1.77706      2.500    0.1796293   2.8284271  10.1270171    0    0   -1
        90   1   2    1.77706      2.500    5.8364834   2.8284271  10.1270171    0    0   -1
        91   1   2    1.77706      2.500    0.1796293   8.4852812  10.1270171    0    0   -1
        92   1   2    1.77706      2.500    5.8364834   8.4852812  10.1270171    0    0   -1
        93   1   2    1.77706      2.500    0.1796293   2.8284271  14.1270171    0    0    1
        94   1   2    1.77706      2.500    5.8364834   2.8284271  14.1270171    0    0    1
        95   1   2    1.77706      2.500    0.1796293   8.4852812  14.1270171    0    0    1
        96   1   2    1.77706      2.500    5.8364834   8.4852812  14.1270171    0    0    1
        97   1   2    1.77706      2.500    0.1796293   2.8284271  18.1270171    0    0   -1
        98   1   2    1.77706      2.500    5.8364834   2.8284271  18.1270171    0    0   -1
        99   1   2    1.77706      2.500    0.1796293   8.4852812  18.1270171    0    0   -1
       100   1   2    1.77706      2.500    5.8364834   8.4852812  18.1270171    0    0   -1
       101   1   2    1.77706      2.500   -0.1796293   2.8284271  22.1270171    0    0    1
       102   1   2    1.77706      2.500    5.4772249   2.8284271  22.1270171    0    0    1
       103   1   2    1.77706      2.500   -0.1796293   8.4852812  22.1270171    0    0    1
       104   1   2    1.77706      2.500    5.4772249   8.4852812  22.1270171    0    0    1
       105   1   2    1.77706      2.500   -0.1796293   2.8284271  26.1270171    0    0   -1
       106   1   2    1.77706      2.500    5.4772249   2.8284271  26.1270171    0    0   -1
       107   1   2    1.77706      2.500   -0.1796293   8.4852812  26.1270171    0    0   -1
       108   1   2    1.77706      2.500    5.4772249   8.4852812  26.1270171    0    0   -1
       109   1   2    1.77706      2.500   -0.1796293   2.8284271  30.1270171    0    0    1
       110   1   2    1.77706      2.500    5.4772249   2.8284271  30.1270171    0    0    1
       111   1   2    1.77706      2.500   -0.1796293   8.4852812  30.1270171    0    0    1
       112   1   2    1.77706      2.500    5.4772249   8.4852812  30.1270171    0    0    1
       113   1   2    1.77706      2.500   -0.1796293   2.8284271  34.1270171    0    0   -1
       114   1   2    1.77706      2.500    5.4772249   2.8284271  34.1270171    0    0   -1
       115   1   2    1.77706      2.500   -0.1796293   8.4852812  34.1270171    0    0   -1
       116   1   2    1.77706      2.500    5.4772249   8.4852812  34.1270171    0    0   -1
       117   1   2    1.77706      2.500   -0.1796293   2.8284271  38.1270171    0    0    1
       118   1   2    1.77706      2.500    5.4772249   2.8284271  38.1270171    0    0    1
       119   1   2    1.77706      2.500   -0.1796293   8.4852812  38.1270171    0    0    1
       120   1   2    1.77706      2.500    5.4772249   8.4852812  38.1270171    0    0    1
       121   1   2    1.77706      2.500    3.0080563   0.0000000   2.1270171    0    0    1
       122   1   2    1.77706      2.500    8.6649105   0.0000000   2.1270171    0    0    1
       123   1   2    1.77706      2.500    3.0080563   5.6568542   2.1270171    0    0    1
       124   1   2    1.77706      2.500    8.6649105   5.6568542   2.1270171    0    0    1
       125   1   2    1.77706      2.500    3.0080563   0.0000000   6.1270171    0    0   -1
       126   1   2    1.77706      2.500    8.6649105   0.0000000   6.1270171    0    0   -1
       127   1   2    1.77706      2.500    3.0080563   5.6568542   6.1270171    0    0   -1
       128   1   2    1.77706      2.500    8.6649105   5.6568542   6.1270171    0    0   -1
       129   1   2    1.77706      2.500    3.0080563   0.0000000  10.1270171    0    0    1
       130   1   2    1.77706      2.500    8.6649105   0.0000000  10.1270171    0    0    1
       131   1   2    1.77706      2.500    3.0080563   5.6568542  10.1270171    0    0    1
       132   1   2    1.77706      2.500    8.6649105   5.6568542  10.1270171    0    0    1
       133   1   2    1.77706      2.500    3.0080563   0.0000000  14.1270171    0    0   -1
       134   1   2    1.77706      2.500    8.6649105   0.0000000  14.1270171    0    0   -1
       135   1   2    1.77706      2.500    3.0080563   5.6568542  14.1270171    0    0   -1
       136   1   2    1.77706      2.500    8.6649105   5.6568542  14.1270171    0    0   -1
       137   1   2    1.77706      2.500    3.0080563   0.0000000  18.1270171    0    0    1
       138   1   2    1.77706      2.500    8.6649105   0.0000000  18.1270171    0    0    1
       139   1   2    1.77706      2.500    3.0080563   5.6568542  18.1270171    0    0    1
       140   1   2    1.77706      2.500    8.6649105   5.6568542  18.1270171    0    0    1
       141   1   2    1.77706      2.500    2.6487978   0.0000000  22.1270171    0    0   -1
       142   1   2    1.77706      2.500    8.3056520   0.0000000  22.1270171    0    0   -1
       143   1   2    1.77706      2.500    2.6487978   5.6568542  22.1270171    0    0   -1
       144   1   2    1.77706      2.500    8.3056520   5.6568542  22.1270171    0    0   -1
       145   1   2    1.77706      2.500    2.6487978   0.0000000  26.1270171    0    0    1
       146   1   2    1.77706      2.500    8.3056520   0.0000000  26.1270171    0    0    1
       147   1   2    1.77706      2.500    2.6487978   5.6568542  26.1270171    0    0    1
       148   1   2    1.77706      2.500    8.3056520   5.6568542  26.1270171    0    0    1
       149   1   2    1.77706      2.500    2.6487978   0.0000000  30.1270171    0    0   -1
       150   1   2    1.77706      2.500    8.3056520   0.0000000  30.1270171    0    0   -1
       151   1   2    1.77706      2.500    2.6487978   5.6568542  30.1270171    0    0   -1
       152   1   2    1.77706      2.500    8.3056520   5.6568542  30.1270171    0    0   -1
       153   1   2    1.77706      2.500    2.6487978   0.0000000  34.1270171    0    0    1
       154   1   2    1.77706      2.500    8.3056520   0.0000000  34.1270171    0    0    1
       155   1   2    1.77706      2.500    2.6487978   5.6568542  34.1270171    0    0    1
       156   1   2    1.77706      2.500    8.3056520   5.6568542  34.1270171    0    0    1
       157   1   2    1.77706      2.500    2.6487978   0.0000000  38.1270171    0    0   -1
       158   1   2    1.77706      2.500    8.3056520   0.0000000  38.1270171    0    0   -1
       159   1   2    1.77706      2.500    2.6487978   5.6568542  38.1270171    0    0   -1
       160   1   2    1.77706      2.500    8.3056520   5.6568542  38.1270171    0    0   -1
       161   1   3   -1.23820      0.000   -0.0322891   2.4014529  -0.0152212    0    0    0
       162   1   3   -1.23820      0.000    5.6245651   2.4014529  -0.0152212    0    0    0
       163   1   3   -1.23820      0.000   -0.0322891   8.0583070  -0.0152212    0    0    0
       164   1   3   -1.23820      0.000    5.6245651   8.0583070  -0.0152212    0    0    0
       165   1   3   -1.23820      0.000   -0.0635952   3.6823755   4.0917906    0    0    0
       166   1   3   -1.23820      0.000    5.5932590   3.6823755   4.0917906    0    0    0
       167   1   3   -1.23820      0.000   -0.0635952   9.3392296   4.0917906    0    0    0
       168   1   3   -1.23820      0.000    5.5932590   9.3392296   4.0917906    0    0    0
       169   1   3   -1.23820      0.000   -0.0635952   1.9744787   8.0917906    0    0    0
       170   1   3   -1.23820      0.000    5.5932590   1.9744787   8.0917906    0    0    0
       171   1   3   -1.23820      0.000   -0.0635952   7.6313328   8.0917906    0    0    0
       172   1   3   -1.23820      0.000    5.5932590   7.6313328   8.0917906    0    0    0
       173   1   3   -1.23820      0.000   -0.0635952   3.6823755  12.0917906    0    0    0
       174   1   3   -1.23820      0.000    5.5932590   3.6823755  12.0917906    0    0    0
       175   1   3   -1.23820      0.000   -0.0635952   9.3392296  12.0917906    0    0    0
       176   1   3   -1.23820      0.000    5.5932590   9.3392296  12.0917906    0    0    0
       177   1   3   -1.23820      0.000   -0.0635952   1.9744787  16.0917906    0    0    0
       178   1   3   -1.23820      0.000    5.5932590   1.9744787  16.0917906    0    0    0
       179   1   3   -1.23820      0.000   -0.0635952   7.6313328  16.0917906    0    0    0
       180   1   3   -1.23820      0.000    5.5932590   7.6313328  16.0917906    0    0    0
       181   1   3   -1.23820      0.000   -0.0635952   3.6823755  20.0917906    0    0    0
       182   1   3   -1.23820      0.000    5.5932590   3.6823755  20.0917906    0    0    0
       183   1   3   -1.23820      0.000   -0.0635952   9.3392296  20.0917906    0    0    0
       184   1   3   -1.23820      0.000    5.5932590   9.3392296  20.0917906    0    0    0
       185   1   3   -1.23820      0.000   -0.0635952   1.9744787  24.0917906    0    0    0
       186   1   3   -1.23820      0.000    5.5932590   1.9744787  24.0917906    0    0    0
       187   1   3   -1.23820      0.000   -0.0635952   7.6313328  24.0917906    0    0    0
       188   1   3   -1.23820      0.000    5.5932590   7.6313328  24.0917906    0    0    0
       189   1   3   -1.23820      0.000   -0.0635952   3.6823755  28.0917906    0    0    0
       190   1   3   -1.23820      0.000    5.5932590   3.6823755  28.0917906    0    0    0
       191   1   3   -1.23820      0.000   -0.0635952   9.3392296  28.0917906    0    0    0
       192   1   3   -1.23820      0.000    5.5932590   9.3392296  28.0917906    0    0    0
       193   1   3   -1.23820      0.000   -0.0635952   1.9744787  32.0917906    0    0    0
       194   1   3   -1.23820      0.000    5.5932590   1.9744787  32.0917906    0    0    0
       195   1   3   -1.23820      0.000   -0.0635952   7.6313328  32.0917906    0    0    0
       196   1   3   -1.23820      0.000    5.5932590   7.6313328  32.0917906    0    0    0
       197   1   3   -1.23820      0.000   -0.0635952   3.6823755  36.0917906    0    0    0
       198   1   3   -1.23820      0.000    5.5932590   3.6823755  36.0917906    0    0    0
       199   1   3   -1.23820      0.000   -0.0635952   9.3392296  36.0917906    0    0    0
       200   1   3   -1.23820      0.000    5.5932590   9.3392296  36.0917906    0    0    0
       201   1   3   -1.23820      0.000    2.7961380   0.4269742  -0.0152212    0    0    0
       202   1   3   -1.23820      0.000    8.4529922   0.4269742  -0.0152212    0    0    0
       203   1   3   -1.23820      0.000    2.7961380   6.0838283  -0.0152212    0    0    0
       204   1   3   -1.23820      0.000    8.4529922   6.0838283  -0.0152212    0    0    0
       205   1   3   -1.23820      0.000    2.7648319  -0.8539484   4.0917906    0    0    0
       206   1   3   -1.23820      0.000    8.4216861  -0.8539484   4.0917906    0    0    0
       207   1   3   -1.23820      0.000    2.7648319   4.8029058   4.0917906    0    0    0
       208   1   3   -1.23820      0.000    8.4216861   4.8029058   4.0917906    0    0    0
       209   1   3   -1.23820      0.000    2.7648319   0.8539484   8.0917906    0    0    0
       210   1   3   -1.23820      0.000    8.4216861   0.8539484   8.0917906    0    0    0
       211   1   3   -1.23820      0.000    2.7648319   6.5108025   8.0917906    0    0    0
       212   1   3   -1.23820      0.000    8.4216861   6.5108025   8.0917906    0    0    0
       213   1   3   -1.23820      0.000    2.7648319  -0.8539484  12.0917906    0    0    0
       214   1   3   -1.23820      0.000    8.4216861  -0.8539484  12.0917906    0    0    0
       215   1   3   -1.23820      0.000    2.7648319   4.8029058  12.0917906    0    0    0
       216   1   3   -1.23820      0.000    8.4216861   4.8029058  12.0917906    0    0    0
       217   1   3   -1.23820      0.000    2.7648319   0.8539484  16.0917906    0    0    0
       218   1   3   -1.23820      0.000    8.4216861   0.8539484  16.0917906    0    0    0
       219   1   3   -1.23820      0.000    2.7648319   6.5108025  16.0917906    0    0    0
       220   1   3   -1.23820      0.000    8.4216861   6.5108025  16.0917906    0    0    0
       221   1   3   -1.23820      0.000    2.7648319  -0.8539484  20.0917906    0    0    0
       222   1   3   -1.23820      0.000    8.4216861  -0.8539484  20.0917906    0    0    0
       223   1   3   -1.23820      0.000    2.7648319   4.8029058  20.0917906    0    0    0
       224   1   3   -1.23820      0.000    8.4216861   4.8029058  20.0917906    0    0    0
       225   1   3   -1.23820      0.000    2.7648319   0.8539484  24.0917906    0    0    0
       226   1   3   -1.23820      0.000    8.4216861   0.8539484  24.0917906    0    0    0
       227   1   3   -1.23820      0.000    2.7648319   6.5108025  24.0917906    0    0    0
       228   1   3   -1.23820      0.000    8.4216861   6.5108025  24.0917906    0    0    0
       229   1   3   -1.23820      0.000    2.7648319  -0.8539484  28.0917906    0    0    0
       230   1   3   -1.23820      0.000    8.4216861  -0.8539484  28.0917906    0    0    0
       231   1   3   -1.23820      0.000    2.7648319   4.8029058  28.0917906    0    0    0
       232   1   3   -1.23820      0.000    8.4216861   4.8029058  28.0917906    0    0    0
       233   1   3   -1.23820      0.000    2.7648319   0.8539484  32.0917906    0    0    0
       234   1   3   -1.23820      0.000    8.4216861   0.8539484  32.0917906    0    0    0
       235   1   3   -1.23820      0.000    2.7648319   6.5108025  32.0917906    0    0    0
       236   1   3   -1.23820      0.000    8.4216861   6.5108025  32.0917906    0    0    0
       237   1   3   -1.23820      0.000    2.7648319  -0.8539484  36.0917906    0    0    0
       238   1   3   -1.23820      0.000    8.4216861  -0.8539484  36.0917906    0    0    0
       239   1   3   -1.23820      0.000    2.7648319   4.8029058  36.0917906    0    0    0
       240   1   3   -1.23820      0.000    8.4216861   4.8029058  36.0917906    0    0    0
       241   1   3   -1.23820      0.000    1.0203475   0.8905360   2.5588641    0    0    0
       242   1   3   -1.23820      0.000    6.6772017   0.8905360   2.5588641    0    0    0
       243   1   3   -1.23820      0.000    1.0203475   6.5473902   2.5588641    0    0    0
       244   1   3   -1.23820      0.000    6.6772017   6.5473902   2.5588641    0    0    0
       245   1   3   -1.23820      0.000    1.8742959   1.7444844   5.3511987    0    0    0
       246   1   3   -1.23820      0.000    7.5311501   1.7444844   5.3511987    0    0    0
       247   1   3   -1.23820      0.000    1.8742959   7.4013385   5.3511987    0    0    0
       248   1   3   -1.23820      0.000    7.5311501   7.4013385   5.3511987    0    0    0
       249   1   3   -1.23820      0.000    1.0203475   0.8905360  10.5588641    0    0    0
       250   1   3   -1.23820      0.000    6.6772017   0.8905360  10.5588641    0    0    0
       251   1   3   -1.23820      0.000    1.0203475   6.5473902  10.5588641    0    0    0
       252   1   3   -1.23820      0.000    6.6772017   6.5473902  10.5588641    0    0    0
       253   1   3   -1.23820      0.000    1.8742959   1.7444844  13.3511987    0    0    0
       254   1   3   -1.23820      0.000    7.5311501   1.7444844  13.3511987    0    0    0
       255   1   3   -1.23820      0.000    1.8742959   7.4013385  13.3511987    0    0    0
       256   1   3   -1.23820      0.000    7.5311501   7.4013385  13.3511987    0    0    0
       257   1   3   -1.23820      0.000    1.0203475   0.8905360  18.5588641    0    0    0
       258   1   3   -1.23820      0.000    6.6772017   0.8905360  18.5588641    0    0    0
       259   1   3   -1.23820      0.000    1.0203475   6.5473902  18.5588641    0    0    0
       260   1   3   -1.23820      0.000    6.6772017   6.5473902  18.5588641    0    0    0
       261   1   3   -1.23820      0.000    1.8742959   1.7444844  21.3511987    0    0    0
       262   1   3   -1.23820      0.000    7.5311501   1.7444844  21.3511987    0    0    0
       263   1   3   -1.23820      0.000    1.8742959   7.4013385  21.3511987    0    0    0
       264   1   3   -1.23820      0.000    7.5311501   7.4013385  21.3511987    0    0    0
       265   1   3   -1.23820      0.000    1.0203475   0.8905360  26.5588641    0    0    0
       266   1   3   -1.23820      0.000    6.6772017   0.8905360  26.5588641    0    0    0
       267   1   3   -1.23820      0.000    1.0203475   6.5473902  26.5588641    0    0    0
       268   1   3   -1.23820      0.000    6.6772017   6.5473902  26.5588641    0    0    0
       269   1   3   -1.23820      0.000    1.8742959   1.7444844  29.3511987    0    0    0
       270   1   3   -1.23820      0.000    7.5311501   1.7444844  29.3511987    0    0    0
       271   1   3   -1.23820      0.000    1.8742959   7.4013385  29.3511987    0    0    0
       272   1   3   -1.23820      0.000    7.5311501   7.4013385  29.3511987    0    0    0
       273   1   3   -1.23820      0.000    1.0203475   0.8905360  34.5588641    0    0    0
       274   1   3   -1.23820      0.000    6.6772017   0.8905360  34.5588641    0    0    0
       275   1   3   -1.23820      0.000    1.0203475   6.5473902  34.5588641    0    0    0
       276   1   3   -1.23820      0.000    6.6772017   6.5473902  34.5588641    0    0    0
       277   1   3   -1.23820      0.000    1.8742959   1.7444844  37.3511987    0    0    0
       278   1   3   -1.23820      0.000    7.5311501   1.7444844  37.3511987    0    0    0
       279   1   3   -1.23820      0.000    1.8742959   7.4013385  37.3511987    0    0    0
       280   1   3   -1.23820      0.000    7.5311501   7.4013385  37.3511987    0    0    0
       281   1   3   -1.23820      0.000    4.6365066   4.7663181   1.4411359    0    0    0
       282   1   3   -1.23820      0.000   10.1398894   4.4615092   1.7209155    0    0    0
       283   1   3   -1.23820      0.000    4.4292202  10.1076004   1.6752518    0    0    0
       284   1   3   -1.23820      0.000    9.8994948   9.8994948   2.0000000    0    0    0
       285   1   3   -1.23820      0.000    3.7825582   3.9123698   6.6488013    0    0    0
       286   1   3   -1.23820      0.000    9.7129152   4.0345350   6.3247482    0    0    0
       287   1   3   -1.23820      0.000    4.0022460   9.6806262   6.2790845    0    0    0
       288   1   3   -1.23820      0.000    9.8994948   9.8994948   6.0000000    0    0    0
       289   1   3   -1.23820      0.000    4.6365066   4.7663181   9.4411359    0    0    0
       290   1   3   -1.23820      0.000   10.1398894   4.4615092   9.7209155    0    0    0
       291   1   3   -1.23820      0.000    4.4292202  10.1076004   9.6752518    0    0    0
       292   1   3   -1.23820      0.000    9.8994948   9.8994948  10.0000000    0    0    0
       293   1   3   -1.23820      0.000    3.7825582   3.9123698  14.6488013    0    0    0
       294   1   3   -1.23820      0.000    9.7129152   4.0345350  14.3247482    0    0    0
       295   1   3   -1.23820      0.000    4.0022460   9.6806262  14.2790845    0    0    0
       296   1   3   -1.23820      0.000    9.8994948   9.8994948  14.0000000    0    0    0
       297   1   3   -1.23820      0.000    4.6365066   4.7663181  17.4411359    0    0    0
       298   1   3   -1.23820      0.000   10.1398894   4.4615092  17.7209155    0    0    0
       299   1   3   -1.23820      0.000    4.4292202  10.1076004  17.6752518    0    0    0
       300   1   3   -1.23820      0.000    9.8994948   9.8994948  18.0000000    0    0    0
       301   1   3   -1.23820      0.000    3.7825582   3.9123698  22.6488013    0    0    0
       302   1   3   -1.23820      0.000    9.7129152   4.0345350  22.3247482    0    0    0
       303   1   3   -1.23820      0.000    4.0022460   9.6806262  22.2790845    0    0    0
       304   1   3   -1.23820      0.000    9.8994948   9.8994948  22.0000000    0    0    0
       305   1   3   -1.23820      0.000    4.6365066   4.7663181  25.4411359    0    0    0
       306   1   3   -1.23820      0.000   10.1398894   4.4615092  25.7209155    0    0    0
       307   1   3   -1.23820      0.000    4.4292202  10.1076004  25.6752518    0    0    0
       308   1   3   -1.23820      0.000    9.8994948   9.8994948  26.0000000    0    0    0
       309   1   3   -1.23820      0.000    3.7825582   3.9123698  30.6488013    0    0    0
       310   1   3   -1.23820      0.000    9.7129152   4.0345350  30.3247482    0    0    0
       311   1   3   -1.23820      0.000    4.0022460   9.6806262  30.2790845    0    0    0
       312   1   3   -1.23820      0.000    9.8994948   9.8994948  30.0000000    0    0    0
       313   1   3   -1.23820      0.000    4.6365066   4.7663181  33.4411359    0    0    0
       314   1   3   -1.23820      0.000   10.1398894   4.4615092  33.7209155    0    0    0
       315   1   3   -1.23820      0.000    4.4292202  10.1076004  33.6752518    0    0    0
       316   1   3   -1.23820      0.000    9.8994948   9.8994948  34.0000000    0    0    0
       317   1   3   -1.23820      0.000    3.7825582   3.9123698  38.6488013    0    0    0
       318   1   3   -1.23820      0.000    9.7129152   4.0345350  38.3247482    0    0    0
       319   1   3   -1.23820      0.000    4.0022460   9.6806262  38.2790845    0    0    0