 #LAMMPS ABO3 domain
   
      400 atoms
 3  atom types
   
 0.0    11.31371  xlo xhi
 0.0    11.31371  ylo yhi
 0.0    40.00000  zlo zhi
   
 Masses
   
 1   208.98039
 2    55.84500
 3    15.99940
  
   
 Atoms
   
         1   1   1    1.93753    0.4490731   0.0000000   0.3175427
         2   1   1    1.93753    6.1059273   0.0000000   0.3175427
         3   1   1    1.93753    0.4490731   5.6568542   0.3175427
         4   1   1    1.93753    6.1059273   5.6568542   0.3175427
         5   1   1    1.93753    0.4490731   0.0000000   4.3175427
         6   1   1    1.93753    6.1059273   0.0000000   4.3175427
         7   1   1    1.93753    0.4490731   5.6568542   4.3175427
         8   1   1    1.93753    6.1059273   5.6568542   4.3175427
         9   1   1    1.93753    0.4490731   0.0000000   8.3175427
        10   1   1    1.93753    6.1059273   0.0000000   8.3175427
        11   1   1    1.93753    0.4490731   5.6568542   8.3175427
        12   1   1    1.93753    6.1059273   5.6568542   8.3175427
        13   1   1    1.93753    0.4490731   0.0000000  12.3175427
        14   1   1    1.93753    6.1059273   0.0000000  12.3175427
        15   1   1    1.93753    0.4490731   5.6568542  12.3175427
        16   1   1    1.93753    6.1059273   5.6568542  12.3175427
        17   1   1    1.93753    0.4490731   0.0000000  16.3175427
        18   1   1    1.93753    6.1059273   0.0000000  16.3175427
        19   1   1    1.93753    0.4490731   5.6568542  16.3175427
        20   1   1    1.93753    6.1059273   5.6568542  16.3175427
        21   1   1    1.93753   -0.4490731   0.0000000  20.3175427
        22   1   1    1.93753    5.2077810   0.0000000  20.3175427
        23   1   1    1.93753   -0.4490731   5.6568542  20.3175427
        24   1   1    1.93753    5.2077810   5.6568542  20.3175427
        25   1   1    1.93753   -0.4490731   0.0000000  24.3175427
        26   1   1    1.93753    5.2077810   0.0000000  24.3175427
        27   1   1    1.93753   -0.4490731   5.6568542  24.3175427
        28   1   1    1.93753    5.2077810   5.6568542  24.3175427
        29   1   1    1.93753   -0.4490731   0.0000000  28.3175427
        30   1   1    1.93753    5.2077810   0.0000000  28.3175427
        31   1   1    1.93753   -0.4490731   5.6568542  28.3175427
        32   1   1    1.93753    5.2077810   5.6568542  28.3175427
        33   1   1    1.93753   -0.4490731   0.0000000  32.3175427
        34   1   1    1.93753    5.2077810   0.0000000  32.3175427
        35   1   1    1.93753   -0.4490731   5.6568542  32.3175427
        36   1   1    1.93753    5.2077810   5.6568542  32.3175427
        37   1   1    1.93753   -0.4490731   0.0000000  36.3175427
        38   1   1    1.93753    5.2077810   0.0000000  36.3175427
        39   1   1    1.93753   -0.4490731   5.6568542  36.3175427
        40   1   1    1.93753    5.2077810   5.6568542  36.3175427
        41   1   1    1.93753    3.2775002   2.8284271   0.3175427
        42   1   1    1.93753    8.9343544   2.8284271   0.3175427
        43   1   1    1.93753    3.2775002   8.4852812   0.3175427
        44   1   1    1.93753    8.9343544   8.4852812   0.3175427
        45   1   1    1.93753    3.2775002   2.8284271   4.3175427
        46   1   1    1.93753    8.9343544   2.8284271   4.3175427
        47   1   1    1.93753    3.2775002   8.4852812   4.3175427
        48   1   1    1.93753    8.9343544   8.4852812   4.3175427
        49   1   1    1.93753    3.2775002   2.8284271   8.3175427
        50   1   1    1.93753    8.9343544   2.8284271   8.3175427
        51   1   1    1.93753    3.2775002   8.4852812   8.3175427
        52   1   1    1.93753    8.9343544   8.4852812   8.3175427
        53   1   1    1.93753    3.2775002   2.8284271  12.3175427
        54   1   1    1.93753    8.9343544   2.8284271  12.3175427
        55   1   1    1.93753    3.2775002   8.4852812  12.3175427
        56   1   1    1.93753    8.9343544   8.4852812  12.3175427
        57   1   1    1.93753    3.2775002   2.8284271  16.3175427
        58   1   1    1.93753    8.9343544   2.8284271  16.3175427
        59   1   1    1.93753    3.2775002   8.4852812  16.3175427
        60   1   1    1.93753    8.9343544   8.4852812  16.3175427
        61   1   1    1.93753    2.3793539   2.8284271  20.3175427
        62   1   1    1.93753    8.0362081   2.8284271  20.3175427
        63   1   1    1.93753    2.3793539   8.4852812  20.3175427
        64   1   1    1.93753    8.0362081   8.4852812  20.3175427
        65   1   1    1.93753    2.3793539   2.8284271  24.3175427
        66   1   1    1.93753    8.0362081   2.8284271  24.3175427
        67   1   1    1.93753    2.3793539   8.4852812  24.3175427
        68   1   1    1.93753    8.0362081   8.4852812  24.3175427
        69   1   1    1.93753    2.3793539   2.8284271  28.3175427
        70   1   1    1.93753    8.0362081   2.8284271  28.3175427
        71   1   1    1.93753    2.3793539   8.4852812  28.3175427
        72   1   1    1.93753    8.0362081   8.4852812  28.3175427
        73   1   1    1.93753    2.3793539   2.8284271  32.3175427
        74   1   1    1.93753    8.0362081   2.8284271  32.3175427
        75   1   1    1.93753    2.3793539   8.4852812  32.3175427
        76   1   1    1.93753    8.0362081   8.4852812  32.3175427
        77   1   1    1.93753    2.3793539   2.8284271  36.3175427
        78   1   1    1.93753    8.0362081   2.8284271  36.3175427
        79   1   1    1.93753    2.3793539   8.4852812  36.3175427
        80   1   1    1.93753    8.0362081   8.4852812  36.3175427
        81   1   2    1.77706    0.1796293   2.8284271   2.1270171
        82   1   2    1.77706    5.8364834   2.8284271   2.1270171
        83   1   2    1.77706    0.1796293   8.4852812   2.1270171
        84   1   2    1.77706    5.8364834   8.4852812   2.1270171
        85   1   2    1.77706    0.1796293   2.8284271   6.1270171
        86   1   2    1.77706    5.8364834   2.8284271   6.1270171
        87   1   2    1.77706    0.1796293   8.4852812   6.1270171
        88   1   2    1.77706    5.8364834   8.4852812   6.1270171
        89   1   2    1.77706    0.1796293   2.8284271  10.1270171
        90   1   2    1.77706    5.8364834   2.8284271  10.1270171
        91   1   2    1.77706    0.1796293   8.4852812  10.1270171
        92   1   2    1.77706    5.8364834   8.4852812  10.1270171
        93   1   2    1.77706    0.1796293   2.8284271  14.1270171
        94   1   2    1.77706    5.8364834   2.8284271  14.1270171
        95   1   2    1.77706    0.1796293   8.4852812  14.1270171
        96   1   2    1.77706    5.8364834   8.4852812  14.1270171
        97   1   2    1.77706    0.1796293   2.8284271  18.1270171
        98   1   2    1.77706    5.8364834   2.8284271  18.1270171
        99   1   2    1.77706    0.1796293   8.4852812  18.1270171
       100   1   2    1.77706    5.8364834   8.4852812  18.1270171
       101   1   2    1.77706   -0.1796293   2.8284271  22.1270171
       102   1   2    1.77706    5.4772249   2.8284271  22.1270171
       103   1   2    1.77706   -0.1796293   8.4852812  22.1270171
       104   1   2    1.77706    5.4772249   8.4852812  22.1270171
       105   1   2    1.77706   -0.1796293   2.8284271  26.1270171
       106   1   2    1.77706    5.4772249   2.8284271  26.1270171
       107   1   2    1.77706   -0.1796293   8.4852812  26.1270171
       108   1   2    1.77706    5.4772249   8.4852812  26.1270171
       109   1   2    1.77706   -0.1796293   2.8284271  30.1270171
       110   1   2    1.77706    5.4772249   2.8284271  30.1270171
       111   1   2    1.77706   -0.1796293   8.4852812  30.1270171
       112   1   2    1.77706    5.4772249   8.4852812  30.1270171
       113   1   2    1.77706   -0.1796293   2.8284271  34.1270171
       114   1   2    1.77706    5.4772249   2.8284271  34.1270171
       115   1   2    1.77706   -0.1796293   8.4852812  34.1270171
       116   1   2    1.77706    5.4772249   8.4852812  34.1270171
       117   1   2    1.77706   -0.1796293   2.8284271  38.1270171
       118   1   2    1.77706    5.4772249   2.8284271  38.1270171
       119   1   2    1.77706   -0.1796293   8.4852812  38.1270171
       120   1   2    1.77706    5.4772249   8.4852812  38.1270171
       121   1   2    1.77706    3.0080563   0.0000000   2.1270171
       122   1   2    1.77706    8.6649105   0.0000000   2.1270171
       123   1   2    1.77706    3.0080563   5.6568542   2.1270171
       124   1   2    1.77706    8.6649105   5.6568542   2.1270171
       125   1   2    1.77706    3.0080563   0.0000000   6.1270171
       126   1   2    1.77706    8.6649105   0.0000000   6.1270171
       127   1   2    1.77706    3.0080563   5.6568542   6.1270171
       128   1   2    1.77706    8.6649105   5.6568542   6.1270171
       129   1   2    1.77706    3.0080563   0.0000000  10.1270171
       130   1   2    1.77706    8.6649105   0.0000000  10.1270171
       131   1   2    1.77706    3.0080563   5.6568542  10.1270171
       132   1   2    1.77706    8.6649105   5.6568542  10.1270171
       133   1   2    1.77706    3.0080563   0.0000000  14.1270171
       134   1   2    1.77706    8.6649105   0.0000000  14.1270171
       135   1   2    1.77706    3.0080563   5.6568542  14.1270171
       136   1   2    1.77706    8.6649105   5.6568542  14.1270171
       137   1   2    1.77706    3.0080563   0.0000000  18.1270171
       138   1   2    1.77706    8.6649105   0.0000000  18.1270171
       139   1   2    1.77706    3.0080563   5.6568542  18.1270171
       140   1   2    1.77706    8.6649105   5.6568542  18.1270171
       141   1   2    1.77706    2.6487978   0.0000000  22.1270171
       142   1   2    1.77706    8.3056520   0.0000000  22.1270171
       143   1   2    1.77706    2.6487978   5.6568542  22.1270171
       144   1   2    1.77706    8.3056520   5.6568542  22.1270171
       145   1   2    1.77706    2.6487978   0.0000000  26.1270171
       146   1   2    1.77706    8.3056520   0.0000000  26.1270171
       147   1   2    1.77706    2.6487978   5.6568542  26.1270171
       148   1   2    1.77706    8.3056520   5.6568542  26.1270171
       149   1   2    1.77706    2.6487978   0.0000000  30.1270171
       150   1   2    1.77706    8.3056520   0.0000000  30.1270171
       151   1   2    1.77706    2.6487978   5.6568542  30.1270171
       152   1   2    1.77706    8.3056520   5.6568542  30.1270171
       153   1   2    1.77706    2.6487978   0.0000000  34.1270171
       154   1   2    1.77706    8.3056520   0.0000000  34.1270171
       155   1   2    1.77706    2.6487978   5.6568542  34.1270171
       156   1   2    1.77706    8.3056520   5.6568542  34.1270171
       157   1   2    1.77706    2.6487978   0.0000000  38.1270171
       158   1   2    1.77706    8.3056520   0.0000000  38.1270171
       159   1   2    1.77706    2.6487978   5.6568542  38.1270171
       160   1   2    1.77706    8.3056520   5.6568542  38.1270171
       161   1   3   -1.23820   -0.0322891   2.4014529  -0.0152212
       162   1   3   -1.23820    5.6245651   2.4014529  -0.0152212
       163   1   3   -1.23820   -0.0322891   8.0583070  -0.0152212
       164   1   3   -1.23820    5.6245651   8.0583070  -0.0152212
       165   1   3   -1.23820   -0.0635952   3.6823755   4.0917906
       166   1   3   -1.23820    5.5932590   3.6823755   4.0917906
       167   1   3   -1.23820   -0.0635952   9.3392296   4.0917906
       168   1   3   -1.23820    5.5932590   9.3392296   4.0917906
       169   1   3   -1.23820   -0.0635952   1.9744787   8.0917906
       170   1   3   -1.23820    5.5932590   1.9744787   8.0917906
       171   1   3   -1.23820   -0.0635952   7.6313328   8.0917906
       172   1   3   -1.23820    5.5932590   7.6313328   8.0917906
       173   1   3   -1.23820   -0.0635952   3.6823755  12.0917906
       174   1   3   -1.23820    5.5932590   3.6823755  12.0917906
       175   1   3   -1.23820   -0.0635952   9.3392296  12.0917906
       176   1   3   -1.23820    5.5932590   9.3392296  12.0917906
       177   1   3   -1.23820   -0.0635952   1.9744787  16.0917906
       178   1   3   -1.23820    5.5932590   1.9744787  16.0917906
       179   1   3   -1.23820   -0.0635952   7.6313328  16.0917906
       180   1   3   -1.23820    5.5932590   7.6313328  16.0917906
       181   1   3   -1.23820   -0.0635952   3.6823755  20.0917906
       182   1   3   -1.23820    5.5932590   3.6823755  20.0917906
       183   1   3   -1.23820   -0.0635952   9.3392296  20.0917906
       184   1   3   -1.23820    5.5932590   9.3392296  20.0917906
       185   1   3   -1.23820   -0.0635952   1.9744787  24.0917906
       186   1   3   -1.23820    5.5932590   1.9744787  24.0917906
       187   1   3   -1.23820   -0.0635952   7.6313328  24.0917906
       188   1   3   -1.23820    5.5932590   7.6313328  24.0917906
       189   1   3   -1.23820   -0.0635952   3.6823755  28.0917906
       190   1   3   -1.23820    5.5932590   3.6823755  28.0917906
       191   1   3   -1.23820   -0.0635952   9.3392296  28.0917906
       192   1   3   -1.23820    5.5932590   9.3392296  28.0917906
       193   1   3   -1.23820   -0.0635952   1.9744787  32.0917906
       194   1   3   -1.23820    5.5932590   1.9744787  32.0917906
       195   1   3   -1.23820   -0.0635952   7.6313328  32.0917906
       196   1   3   -1.23820    5.5932590   7.6313328  32.0917906
       197   1   3   -1.23820   -0.0635952   3.6823755  36.0917906
       198   1   3   -1.23820    5.5932590   3.6823755  36.0917906
       199   1   3   -1.23820   -0.0635952   9.3392296  36.0917906
       200   1   3   -1.23820    5.5932590   9.3392296  36.0917906
       201   1   3   -1.23820    2.7961380   0.4269742  -0.0152212
       202   1   3   -1.23820    8.4529922   0.4269742  -0.0152212
       203   1   3   -1.23820    2.7961380   6.0838283  -0.0152212
       204   1   3   -1.23820    8.4529922   6.0838283  -0.0152212
       205   1   3   -1.23820    2.7648319  -0.8539484   4.0917906
       206   1   3   -1.23820    8.4216861  -0.8539484   4.0917906
       207   1   3   -1.23820    2.7648319   4.8029058   4.0917906
       208   1   3   -1.23820    8.4216861   4.8029058   4.0917906
       209   1   3   -1.23820    2.7648319   0.8539484   8.0917906
       210   1   3   -1.23820    8.4216861   0.8539484   8.0917906
       211   1   3   -1.23820    2.7648319   6.5108025   8.0917906
       212   1   3   -1.23820    8.4216861   6.5108025   8.0917906
       213   1   3   -1.23820    2.7648319  -0.8539484  12.0917906
       214   1   3   -1.23820    8.4216861  -0.8539484  12.0917906
       215   1   3   -1.23820    2.7648319   4.8029058  12.0917906
       216   1   3   -1.23820    8.4216861   4.8029058  12.0917906
       217   1   3   -1.23820    2.7648319   0.8539484  16.0917906
       218   1   3   -1.23820    8.4216861   0.8539484  16.0917906
       219   1   3   -1.23820    2.7648319   6.5108025  16.0917906
       220   1   3   -1.23820    8.4216861   6.5108025  16.0917906
       221   1   3   -1.23820    2.7648319  -0.8539484  20.0917906
       222   1   3   -1.23820    8.4216861  -0.8539484  20.0917906
       223   1   3   -1.23820    2.7648319   4.8029058  20.0917906
       224   1   3   -1.23820    8.4216861   4.8029058  20.0917906
       225   1   3   -1.23820    2.7648319   0.8539484  24.0917906
       226   1   3   -1.23820    8.4216861   0.8539484  24.0917906
       227   1   3   -1.23820    2.7648319   6.5108025  24.0917906
       228   1   3   -1.23820    8.4216861   6.5108025  24.0917906
       229   1   3   -1.23820    2.7648319  -0.8539484  28.0917906
       230   1   3   -1.23820    8.4216861  -0.8539484  28.0917906
       231   1   3   -1.23820    2.7648319   4.8029058  28.0917906
       232   1   3   -1.23820    8.4216861   4.8029058  28.0917906
       233   1   3   -1.23820    2.7648319   0.8539484  32.0917906
       234   1   3   -1.23820    8.4216861   0.8539484  32.0917906
       235   1   3   -1.23820    2.7648319   6.5108025  32.0917906
       236   1   3   -1.23820    8.4216861   6.5108025  32.0917906
       237   1   3   -1.23820    2.7648319  -0.8539484  36.0917906
       238   1   3   -1.23820    8.4216861  -0.8539484  36.0917906
       239   1   3   -1.23820    2.7648319   4.8029058  36.0917906
       240   1   3   -1.23820    8.4216861   4.8029058  36.0917906
       241   1   3   -1.23820    1.0203475   0.8905360   2.5588641
       242   1   3   -1.23820    6.6772017   0.8905360   2.5588641
       243   1   3   -1.23820    1.0203475   6.5473902   2.5588641
       244   1   3   -1.23820    6.6772017   6.5473902   2.5588641
       245   1   3   -1.23820    1.8742959   1.7444844   5.3511987
       246   1   3   -1.23820    7.5311501   1.7444844   5.3511987
       247   1   3   -1.23820    1.8742959   7.4013385   5.3511987
       248   1   3   -1.23820    7.5311501   7.4013385   5.3511987
       249   1   3   -1.23820    1.0203475   0.8905360  10.5588641
       250   1   3   -1.23820    6.6772017   0.8905360  10.5588641
       251   1   3   -1.23820    1.0203475   6.5473902  10.5588641
       252   1   3   -1.23820    6.6772017   6.5473902  10.5588641
       253   1   3   -1.23820    1.8742959   1.7444844  13.3511987
       254   1   3   -1.23820    7.5311501   1.7444844  13.3511987
       255   1   3   -1.23820    1.8742959   7.4013385  13.3511987
       256   1   3   -1.23820    7.5311501   7.4013385  13.3511987
       257   1   3   -1.23820    1.0203475   0.8905360  18.5588641
       258   1   3   -1.23820    6.6772017   0.8905360  18.5588641
       259   1   3   -1.23820    1.0203475   6.5473902  18.5588641
       260   1   3   -1.23820    6.6772017   6.5473902  18.5588641
       261   1   3   -1.23820    1.8742959   1.7444844  21.3511987
       262   1   3   -1.23820    7.5311501   1.7444844  21.3511987
       263   1   3   -1.23820    1.8742959   7.4013385  21.3511987
       264   1   3   -1.23820    7.5311501   7.4013385  21.3511987
       265   1   3   -1.23820    1.0203475   0.8905360  26.5588641
       266   1   3   -1.23820    6.6772017   0.8905360  26.5588641
       267   1   3   -1.23820    1.0203475   6.5473902  26.5588641
       268   1   3   -1.23820    6.6772017   6.5473902  26.5588641
       269   1   3   -1.23820    1.8742959   1.7444844  29.3511987
       270   1   3   -1.23820    7.5311501   1.7444844  29.3511987
       271   1   3   -1.23820    1.8742959   7.4013385  29.3511987
       272   1   3   -1.23820    7.5311501   7.4013385  29.3511987
       273   1   3   -1.23820    1.0203475   0.8905360  34.5588641
       274   1   3   -1.23820    6.6772017   0.8905360  34.5588641
       275   1   3   -1.23820    1.0203475   6.5473902  34.5588641
       276   1   3   -1.23820    6.6772017   6.5473902  34.5588641
       277   1   3   -1.23820    1.8742959   1.7444844  37.3511987
       278   1   3   -1.23820    7.5311501   1.7444844  37.3511987
       279   1   3   -1.23820    1.8742959   7.4013385  37.3511987
       280   1   3   -1.23820    7.5311501   7.4013385  37.3511987
       281   1   3   -1.23820    4.6365066   4.7663181   1.4411359
       282   1   3   -1.23820   10.1398894   4.4615092   1.7209155
       283   1   3   -1.23820    4.4292202  10.1076004   1.6752518
       284   1   3   -1.23820    9.8994948   9.8994948   2.0000000
       285   1   3   -1.23820    3.7825582   3.9123698   6.6488013
       286   1   3   -1.23820    9.7129152   4.0345350   6.3247482
       287   1   3   -1.23820    4.0022460   9.6806262   6.2790845
       288   1   3   -1.23820    9.8994948   9.8994948   6.0000000
       289   1   3   -1.23820    4.6365066   4.7663181   9.4411359
       290   1   3   -1.23820   10.1398894   4.4615092   9.7209155
       291   1   3   -1.23820    4.4292202  10.1076004   9.6752518
       292   1   3   -1.23820    9.8994948   9.8994948  10.0000000
       293   1   3   -1.23820    3.7825582   3.9123698  14.6488013
       294   1   3   -1.23820    9.7129152   4.0345350  14.3247482
       295   1   3   -1.23820    4.0022460   9.6806262  14.2790845
       296   1   3   -1.23820    9.8994948   9.8994948  14.0000000
       297   1   3   -1.23820    4.6365066   4.7663181  17.4411359
       298   1   3   -1.23820   10.1398894   4.4615092  17.7209155
       299   1   3   -1.23820    4.4292202  10.1076004  17.6752518
       300   1   3   -1.23820    9.8994948   9.8994948  18.0000000
       301   1   3   -1.23820    3.7825582   3.9123698  22.6488013
       302   1   3   -1.23820    9.7129152   4.0345350  22.3247482
       303   1   3   -1.23820    4.0022460   9.6806262  22.2790845
       304   1   3   -1.23820    9.8994948   9.8994948  22.0000000
       305   1   3   -1.23820    4.6365066   4.7663181  25.4411359
       306   1   3   -1.23820   10.1398894   4.4615092  25.7209155
       307   1   3   -1.23820    4.4292202  10.1076004  25.6752518
       308   1   3   -1.23820    9.8994948   9.8994948  26.0000000
       309   1   3   -1.23820    3.7825582   3.9123698  30.6488013
       310   1   3   -1.23820    9.7129152   4.0345350  30.3247482
       311   1   3   -1.23820    4.0022460   9.6806262  30.2790845
       312   1   3   -1.23820    9.8994948   9.8994948  30.0000000
       313   1   3   -1.23820    4.6365066   4.7663181  33.4411359
       314   1   3   -1.23820   10.1398894   4.4615092  33.7209155
       315   1   3   -1.23820    4.4292202  10.1076004  33.6752518
       316   1   3   -1.23820    9.8994948   9.8994948  34.0000000
       317   1   3   -1.23820    3.7825582   3.9123698  38.6488013
       318   1   3   -1.23820    9.7129152   4.0345350  38.3247482
       319   1   3   -1.23820    4.0022460   9.6806262  38.2790845
       320   1   3   -1.23820    9.8994948   9.8994948  38.0000000
       321   1   3   -1.23820    1.8742959   3.9123698   1.3511987
       322   1   3   -1.23820    7.5311501   3.9123698   1.3511987
       323   1   3   -1.23820    1.6546082   9.6806262   1.7209155
       324   1   3   -1.23820    7.3114623   9.6806262   1.7209155
       325   1   3   -1.23820    1.0203475   4.7663181   6.5588641
       326   1   3   -1.23820    6.6772017   4.7663181   6.5588641
       327   1   3   -1.23820    1.2276340  10.1076004   6.3247482
       328   1   3   -1.23820    6.8844881  10.1076004   6.3247482
       329   1   3   -1.23820    1.8742959   3.9123698   9.3511987
       330   1   3   -1.23820    7.5311501   3.9123698   9.3511987
       331   1   3   -1.23820    1.6546082   9.6806262   9.7209155
       332   1   3   -1.23820    7.3114623   9.6806262   9.7209155
       333   1   3   -1.23820    1.0203475   4.7663181  14.5588641
       334   1   3   -1.23820    6.6772017   4.7663181  14.5588641
       335   1   3   -1.23820    1.2276340  10.1076004  14.3247482
       336   1   3   -1.23820    6.8844881  10.1076004  14.3247482
       337   1   3   -1.23820    1.8742959   3.9123698  17.3511987
       338   1   3   -1.23820    7.5311501   3.9123698  17.3511987
       339   1   3   -1.23820    1.6546082   9.6806262  17.7209155
       340   1   3   -1.23820    7.3114623   9.6806262  17.7209155
       341   1   3   -1.23820    1.0203475   4.7663181  22.5588641
       342   1   3   -1.23820    6.6772017   4.7663181  22.5588641
       343   1   3   -1.23820    1.2276340  10.1076004  22.3247482
       344   1   3   -1.23820    6.8844881  10.1076004  22.3247482
       345   1   3   -1.23820    1.8742959   3.9123698  25.3511987
       346   1   3   -1.23820    7.5311501   3.9123698  25.3511987
       347   1   3   -1.23820    1.6546082   9.6806262  25.7209155
       348   1   3   -1.23820    7.3114623   9.6806262  25.7209155
       349   1   3   -1.23820    1.0203475   4.7663181  30.5588641
       350   1   3   -1.23820    6.6772017   4.7663181  30.5588641
       351   1   3   -1.23820    1.2276340  10.1076004  30.3247482
       352   1   3   -1.23820    6.8844881  10.1076004  30.3247482
       353   1   3   -1.23820    1.8742959   3.9123698  33.3511987
       354   1   3   -1.23820    7.5311501   3.9123698  33.3511987
       355   1   3   -1.23820    1.6546082   9.6806262  33.7209155
       356   1   3   -1.23820    7.3114623   9.6806262  33.7209155
       357   1   3   -1.23820    1.0203475   4.7663181  38.5588641
       358   1   3   -1.23820    6.6772017   4.7663181  38.5588641
       359   1   3   -1.23820    1.2276340  10.1076004  38.3247482
       360   1   3   -1.23820    6.8844881  10.1076004  38.3247482
       361   1   3   -1.23820    3.7825582   1.7444844   2.6488013
       362   1   3   -1.23820    9.7129152   1.6223191   2.3247482
       363   1   3   -1.23820    3.7825582   7.4013385   2.6488013
       364   1   3   -1.23820    9.7129152   7.2791733   2.3247482
       365   1   3   -1.23820    4.6365066   0.8905360   5.4411359
       366   1   3   -1.23820   10.1398894   1.1953449   5.7209155
       367   1   3   -1.23820    4.6365066   6.5473902   5.4411359
       368   1   3   -1.23820   10.1398894   6.8521991   5.7209155
       369   1   3   -1.23820    3.7825582   1.7444844  10.6488013
       370   1   3   -1.23820    9.7129152   1.6223191  10.3247482
       371   1   3   -1.23820    3.7825582   7.4013385  10.6488013
       372   1   3   -1.23820    9.7129152   7.2791733  10.3247482
       373   1   3   -1.23820    4.6365066   0.8905360  13.4411359
       374   1   3   -1.23820   10.1398894   1.1953449  13.7209155
       375   1   3   -1.23820    4.6365066   6.5473902  13.4411359
       376   1   3   -1.23820   10.1398894   6.8521991  13.7209155
       377   1   3   -1.23820    3.7825582   1.7444844  18.6488013
       378   1   3   -1.23820    9.7129152   1.6223191  18.3247482
       379   1   3   -1.23820    3.7825582   7.4013385  18.6488013
       380   1   3   -1.23820    9.7129152   7.2791733  18.3247482
       381   1   3   -1.23820    4.6365066   0.8905360  21.4411359
       382   1   3   -1.23820   10.1398894   1.1953449  21.7209155
       383   1   3   -1.23820    4.6365066   6.5473902  21.4411359
       384   1   3   -1.23820   10.1398894   6.8521991  21.7209155
       385   1   3   -1.23820    3.7825582   1.7444844  26.6488013
       386   1   3   -1.23820    9.7129152   1.6223191  26.3247482
       387   1   3   -1.23820    3.7825582   7.4013385  26.6488013
       388   1   3   -1.23820    9.7129152   7.2791733  26.3247482
       389   1   3   -1.23820    4.6365066   0.8905360  29.4411359
       390   1   3   -1.23820   10.1398894   1.1953449  29.7209155
       391   1   3   -1.23820    4.6365066   6.5473902  29.4411359
       392   1   3   -1.23820   10.1398894   6.8521991  29.7209155
       393   1   3   -1.23820    3.7825582   1.7444844  34.6488013
       394   1   3   -1.23820    9.7129152   1.6223191  34.3247482
       395   1   3   -1.23820    3.7825582   7.4013385  34.6488013
       396   1   3   -1.23820    9.7129152   7.2791733  34.3247482
       397   1   3   -1.23820    4.6365066   0.8905360  37.4411359
       398   1   3   -1.23820   10.1398894   1.1953449  37.7209155
       399   1   3   -1.23820    4.6365066   6.5473902  37.4411359
       400   1   3   -1.23820   10.1398894   6.8521991  37.7209155
