 #LAMMPS ABO3 domain
   
     5000 atoms
     3000 angles
 3  atom types
 1 angle types
   
 0.0    40.65075  xlo xhi
 0.0    40.65075  ylo yhi
 0.0    41.09000  zlo zhi
   
 Masses
   
 1   137.32700
 2    47.88000
 3    15.99940
  
 Angle Coeffs
   
 1 200  180.00
   
 Atoms
   
         1   1   1    1.34730    0.4000000   0.0000000   0.4000000
         2   1   1    1.34730    4.4650749   0.0000000   0.4000000
         3   1   1    1.34730    8.5301498   0.0000000   0.4000000
         4   1   1    1.34730   12.5952248   0.0000000   0.4000000
         5   1   1    1.34730   16.6602997   0.0000000   0.4000000
         6   1   1    1.34730   20.7253746   0.0000000   0.4000000
         7   1   1    1.34730   24.7904495   0.0000000   0.4000000
         8   1   1    1.34730   28.8555245   0.0000000   0.4000000
         9   1   1    1.34730   32.9205994   0.0000000   0.4000000
        10   1   1    1.34730   36.9856743   0.0000000   0.4000000
        11   1   1    1.34730    0.4000000   4.0650749   0.4000000
        12   1   1    1.34730    4.4650749   4.0650749   0.4000000
        13   1   1    1.34730    8.5301498   4.0650749   0.4000000
        14   1   1    1.34730   12.5952248   4.0650749   0.4000000
        15   1   1    1.34730   16.6602997   4.0650749   0.4000000
        16   1   1    1.34730   20.7253746   4.0650749   0.4000000
        17   1   1    1.34730   24.7904495   4.0650749   0.4000000
        18   1   1    1.34730   28.8555245   4.0650749   0.4000000
        19   1   1    1.34730   32.9205994   4.0650749   0.4000000
        20   1   1    1.34730   36.9856743   4.0650749   0.4000000
        21   1   1    1.34730    0.4000000   8.1301498   0.4000000
        22   1   1    1.34730    4.4650749   8.1301498   0.4000000
        23   1   1    1.34730    8.5301498   8.1301498   0.4000000
        24   1   1    1.34730   12.5952248   8.1301498   0.4000000
        25   1   1    1.34730   16.6602997   8.1301498   0.4000000
        26   1   1    1.34730   20.7253746   8.1301498   0.4000000
        27   1   1    1.34730   24.7904495   8.1301498   0.4000000
        28   1   1    1.34730   28.8555245   8.1301498   0.4000000
        29   1   1    1.34730   32.9205994   8.1301498   0.4000000
        30   1   1    1.34730   36.9856743   8.1301498   0.4000000
        31   1   1    1.34730    0.4000000  12.1952248   0.4000000
        32   1   1    1.34730    4.4650749  12.1952248   0.4000000
        33   1   1    1.34730    8.5301498  12.1952248   0.4000000
        34   1   1    1.34730   12.5952248  12.1952248   0.4000000
        35   1   1    1.34730   16.6602997  12.1952248   0.4000000
        36   1   1    1.34730   20.7253746  12.1952248   0.4000000
        37   1   1    1.34730   24.7904495  12.1952248   0.4000000
        38   1   1    1.34730   28.8555245  12.1952248   0.4000000
        39   1   1    1.34730   32.9205994  12.1952248   0.4000000
        40   1   1    1.34730   36.9856743  12.1952248   0.4000000
        41   1   1    1.34730    0.4000000  16.2602997   0.4000000
        42   1   1    1.34730    4.4650749  16.2602997   0.4000000
        43   1   1    1.34730    8.5301498  16.2602997   0.4000000
        44   1   1    1.34730   12.5952248  16.2602997   0.4000000
        45   1   1    1.34730   16.6602997  16.2602997   0.4000000
        46   1   1    1.34730   20.7253746  16.2602997   0.4000000
        47   1   1    1.34730   24.7904495  16.2602997   0.4000000
        48   1   1    1.34730   28.8555245  16.2602997   0.4000000
        49   1   1    1.34730   32.9205994  16.2602997   0.4000000
        50   1   1    1.34730   36.9856743  16.2602997   0.4000000
        51   1   1    1.34730    0.4000000  20.3253746   0.4000000
        52   1   1    1.34730    4.4650749  20.3253746   0.4000000
        53   1   1    1.34730    8.5301498  20.3253746   0.4000000
        54   1   1    1.34730   12.5952248  20.3253746   0.4000000
        55   1   1    1.34730   16.6602997  20.3253746   0.4000000
        56   1   1    1.34730   20.7253746  20.3253746   0.4000000
        57   1   1    1.34730   24.7904495  20.3253746   0.4000000
        58   1   1    1.34730   28.8555245  20.3253746   0.4000000
        59   1   1    1.34730   32.9205994  20.3253746   0.4000000
        60   1   1    1.34730   36.9856743  20.3253746   0.4000000
        61   1   1    1.34730    0.4000000  24.3904495   0.4000000
        62   1   1    1.34730    4.4650749  24.3904495   0.4000000
        63   1   1    1.34730    8.5301498  24.3904495   0.4000000
        64   1   1    1.34730   12.5952248  24.3904495   0.4000000
        65   1   1    1.34730   16.6602997  24.3904495   0.4000000
        66   1   1    1.34730   20.7253746  24.3904495   0.4000000
        67   1   1    1.34730   24.7904495  24.3904495   0.4000000
        68   1   1    1.34730   28.8555245  24.3904495   0.4000000
        69   1   1    1.34730   32.9205994  24.3904495   0.4000000
        70   1   1    1.34730   36.9856743  24.3904495   0.4000000
        71   1   1    1.34730    0.4000000  28.4555244   0.4000000
        72   1   1    1.34730    4.4650749  28.4555244   0.4000000
        73   1   1    1.34730    8.5301498  28.4555244   0.4000000
        74   1   1    1.34730   12.5952248  28.4555244   0.4000000
        75   1   1    1.34730   16.6602997  28.4555244   0.4000000
        76   1   1    1.34730   20.7253746  28.4555244   0.4000000
        77   1   1    1.34730   24.7904495  28.4555244   0.4000000
        78   1   1    1.34730   28.8555245  28.4555244   0.4000000
        79   1   1    1.34730   32.9205994  28.4555244   0.4000000
        80   1   1    1.34730   36.9856743  28.4555244   0.4000000
        81   1   1    1.34730    0.4000000  32.5205994   0.4000000
        82   1   1    1.34730    4.4650749  32.5205994   0.4000000
        83   1   1    1.34730    8.5301498  32.5205994   0.4000000
        84   1   1    1.34730   12.5952248  32.5205994   0.4000000
        85   1   1    1.34730   16.6602997  32.5205994   0.4000000
        86   1   1    1.34730   20.7253746  32.5205994   0.4000000
        87   1   1    1.34730   24.7904495  32.5205994   0.4000000
        88   1   1    1.34730   28.8555245  32.5205994   0.4000000
        89   1   1    1.34730   32.9205994  32.5205994   0.4000000
        90   1   1    1.34730   36.9856743  32.5205994   0.4000000
        91   1   1    1.34730    0.4000000  36.5856743   0.4000000
        92   1   1    1.34730    4.4650749  36.5856743   0.4000000
        93   1   1    1.34730    8.5301498  36.5856743   0.4000000
        94   1   1    1.34730   12.5952248  36.5856743   0.4000000
        95   1   1    1.34730   16.6602997  36.5856743   0.4000000
        96   1   1    1.34730   20.7253746  36.5856743   0.4000000
        97   1   1    1.34730   24.7904495  36.5856743   0.4000000
        98   1   1    1.34730   28.8555245  36.5856743   0.4000000
        99   1   1    1.34730   32.9205994  36.5856743   0.4000000
       100   1   1    1.34730   36.9856743  36.5856743   0.4000000
       101   1   1    1.34730    0.4000000   0.0000000   4.5090002
       102   1   1    1.34730    4.4650749   0.0000000   4.5090002
       103   1   1    1.34730    8.5301498   0.0000000   4.5090002
       104   1   1    1.34730   12.5952248   0.0000000   4.5090002
       105   1   1    1.34730   16.6602997   0.0000000   4.5090002
       106   1   1    1.34730   20.7253746   0.0000000   4.5090002
       107   1   1    1.34730   24.7904495   0.0000000   4.5090002
       108   1   1    1.34730   28.8555245   0.0000000   4.5090002
       109   1   1    1.34730   32.9205994   0.0000000   4.5090002
       110   1   1    1.34730   36.9856743   0.0000000   4.5090002
       111   1   1    1.34730    0.4000000   4.0650749   4.5090002
       112   1   1    1.34730    4.4650749   4.0650749   4.5090002
       113   1   1    1.34730    8.5301498   4.0650749   4.5090002
       114   1   1    1.34730   12.5952248   4.0650749   4.5090002
       115   1   1    1.34730   16.6602997   4.0650749   4.5090002
       116   1   1    1.34730   20.7253746   4.0650749   4.5090002
       117   1   1    1.34730   24.7904495   4.0650749   4.5090002
       118   1   1    1.34730   28.8555245   4.0650749   4.5090002
       119   1   1    1.34730   32.9205994   4.0650749   4.5090002
       120   1   1    1.34730   36.9856743   4.0650749   4.5090002
       121   1   1    1.34730    0.4000000   8.1301498   4.5090002
       122   1   1    1.34730    4.4650749   8.1301498   4.5090002
       123   1   1    1.34730    8.5301498   8.1301498   4.5090002
       124   1   1    1.34730   12.5952248   8.1301498   4.5090002
       125   1   1    1.34730   16.6602997   8.1301498   4.5090002
       126   1   1    1.34730   20.7253746   8.1301498   4.5090002
       127   1   1    1.34730   24.7904495   8.1301498   4.5090002
       128   1   1    1.34730   28.8555245   8.1301498   4.5090002
       129   1   1    1.34730   32.9205994   8.1301498   4.5090002
       130   1   1    1.34730   36.9856743   8.1301498   4.5090002
       131   1   1    1.34730    0.4000000  12.1952248   4.5090002
       132   1   1    1.34730    4.4650749  12.1952248   4.5090002
       133   1   1    1.34730    8.5301498  12.1952248   4.5090002
       134   1   1    1.34730   12.5952248  12.1952248   4.5090002
       135   1   1    1.34730   16.6602997  12.1952248   4.5090002
       136   1   1    1.34730   20.7253746  12.1952248   4.5090002
       137   1   1    1.34730   24.7904495  12.1952248   4.5090002
       138   1   1    1.34730   28.8555245  12.1952248   4.5090002
       139   1   1    1.34730   32.9205994  12.1952248   4.5090002
       140   1   1    1.34730   36.9856743  12.1952248   4.5090002
       141   1   1    1.34730    0.4000000  16.2602997   4.5090002
       142   1   1    1.34730    4.4650749  16.2602997   4.5090002
       143   1   1    1.34730    8.5301498  16.2602997   4.5090002
       144   1   1    1.34730   12.5952248  16.2602997   4.5090002
       145   1   1    1.34730   16.6602997  16.2602997   4.5090002
       146   1   1    1.34730   20.7253746  16.2602997   4.5090002
       147   1   1    1.34730   24.7904495  16.2602997   4.5090002
       148   1   1    1.34730   28.8555245  16.2602997   4.5090002
       149   1   1    1.34730   32.9205994  16.2602997   4.5090002
       150   1   1    1.34730   36.9856743  16.2602997   4.5090002
       151   1   1    1.34730    0.4000000  20.3253746   4.5090002
       152   1   1    1.34730    4.4650749  20.3253746   4.5090002
       153   1   1    1.34730    8.5301498  20.3253746   4.5090002
       154   1   1    1.34730   12.5952248  20.3253746   4.5090002
       155   1   1    1.34730   16.6602997  20.3253746   4.5090002
       156   1   1    1.34730   20.7253746  20.3253746   4.5090002
       157   1   1    1.34730   24.7904495  20.3253746   4.5090002
       158   1   1    1.34730   28.8555245  20.3253746   4.5090002
       159   1   1    1.34730   32.9205994  20.3253746   4.5090002
       160   1   1    1.34730   36.9856743  20.3253746   4.5090002
       161   1   1    1.34730    0.4000000  24.3904495   4.5090002
       162   1   1    1.34730    4.4650749  24.3904495   4.5090002
       163   1   1    1.34730    8.5301498  24.3904495   4.5090002
       164   1   1    1.34730   12.5952248  24.3904495   4.5090002
       165   1   1    1.34730   16.6602997  24.3904495   4.5090002
       166   1   1    1.34730   20.7253746  24.3904495   4.5090002
       167   1   1    1.34730   24.7904495  24.3904495   4.5090002
       168   1   1    1.34730   28.8555245  24.3904495   4.5090002
       169   1   1    1.34730   32.9205994  24.3904495   4.5090002
       170   1   1    1.34730   36.9856743  24.3904495   4.5090002
       171   1   1    1.34730    0.4000000  28.4555244   4.5090002
       172   1   1    1.34730    4.4650749  28.4555244   4.5090002
       173   1   1    1.34730    8.5301498  28.4555244   4.5090002
       174   1   1    1.34730   12.5952248  28.4555244   4.5090002
       175   1   1    1.34730   16.6602997  28.4555244   4.5090002
       176   1   1    1.34730   20.7253746  28.4555244   4.5090002
       177   1   1    1.34730   24.7904495  28.4555244   4.5090002
       178   1   1    1.34730   28.8555245  28.4555244   4.5090002
       179   1   1    1.34730   32.9205994  28.4555244   4.5090002
       180   1   1    1.34730   36.9856743  28.4555244   4.5090002
       181   1   1    1.34730    0.4000000  32.5205994   4.5090002
       182   1   1    1.34730    4.4650749  32.5205994   4.5090002
       183   1   1    1.34730    8.5301498  32.5205994   4.5090002
       184   1   1    1.34730   12.5952248  32.5205994   4.5090002
       185   1   1    1.34730   16.6602997  32.5205994   4.5090002
       186   1   1    1.34730   20.7253746  32.5205994   4.5090002
       187   1   1    1.34730   24.7904495  32.5205994   4.5090002
       188   1   1    1.34730   28.8555245  32.5205994   4.5090002
       189   1   1    1.34730   32.9205994  32.5205994   4.5090002
       190   1   1    1.34730   36.9856743  32.5205994   4.5090002
       191   1   1    1.34730    0.4000000  36.5856743   4.5090002
       192   1   1    1.34730    4.4650749  36.5856743   4.5090002
       193   1   1    1.34730    8.5301498  36.5856743   4.5090002
       194   1   1    1.34730   12.5952248  36.5856743   4.5090002
       195   1   1    1.34730   16.6602997  36.5856743   4.5090002
       196   1   1    1.34730   20.7253746  36.5856743   4.5090002
       197   1   1    1.34730   24.7904495  36.5856743   4.5090002
       198   1   1    1.34730   28.8555245  36.5856743   4.5090002
       199   1   1    1.34730   32.9205994  36.5856743   4.5090002
       200   1   1    1.34730   36.9856743  36.5856743   4.5090002
       201   1   1    1.34730    0.4000000   0.0000000   8.6180004
       202   1   1    1.34730    4.4650749   0.0000000   8.6180004
       203   1   1    1.34730    8.5301498   0.0000000   8.6180004
       204   1   1    1.34730   12.5952248   0.0000000   8.6180004
       205   1   1    1.34730   16.6602997   0.0000000   8.6180004
       206   1   1    1.34730   20.7253746   0.0000000   8.6180004
       207   1   1    1.34730   24.7904495   0.0000000   8.6180004
       208   1   1    1.34730   28.8555245   0.0000000   8.6180004
       209   1   1    1.34730   32.9205994   0.0000000   8.6180004
       210   1   1    1.34730   36.9856743   0.0000000   8.6180004
       211   1   1    1.34730    0.4000000   4.0650749   8.6180004
       212   1   1    1.34730    4.4650749   4.0650749   8.6180004
       213   1   1    1.34730    8.5301498   4.0650749   8.6180004
       214   1   1    1.34730   12.5952248   4.0650749   8.6180004
       215   1   1    1.34730   16.6602997   4.0650749   8.6180004
       216   1   1    1.34730   20.7253746   4.0650749   8.6180004
       217   1   1    1.34730   24.7904495   4.0650749   8.6180004
       218   1   1    1.34730   28.8555245   4.0650749   8.6180004
       219   1   1    1.34730   32.9205994   4.0650749   8.6180004
       220   1   1    1.34730   36.9856743   4.0650749   8.6180004
       221   1   1    1.34730    0.4000000   8.1301498   8.6180004
       222   1   1    1.34730    4.4650749   8.1301498   8.6180004
       223   1   1    1.34730    8.5301498   8.1301498   8.6180004
       224   1   1    1.34730   12.5952248   8.1301498   8.6180004
       225   1   1    1.34730   16.6602997   8.1301498   8.6180004
       226   1   1    1.34730   20.7253746   8.1301498   8.6180004
       227   1   1    1.34730   24.7904495   8.1301498   8.6180004
       228   1   1    1.34730   28.8555245   8.1301498   8.6180004
       229   1   1    1.34730   32.9205994   8.1301498   8.6180004
       230   1   1    1.34730   36.9856743   8.1301498   8.6180004
       231   1   1    1.34730    0.4000000  12.1952248   8.6180004
       232   1   1    1.34730    4.4650749  12.1952248   8.6180004
       233   1   1    1.34730    8.5301498  12.1952248   8.6180004
       234   1   1    1.34730   12.5952248  12.1952248   8.6180004
       235   1   1    1.34730   16.6602997  12.1952248   8.6180004
       236   1   1    1.34730   20.7253746  12.1952248   8.6180004
       237   1   1    1.34730   24.7904495  12.1952248   8.6180004
       238   1   1    1.34730   28.8555245  12.1952248   8.6180004
       239   1   1    1.34730   32.9205994  12.1952248   8.6180004
       240   1   1    1.34730   36.9856743  12.1952248   8.6180004
       241   1   1    1.34730    0.4000000  16.2602997   8.6180004
       242   1   1    1.34730    4.4650749  16.2602997   8.6180004
       243   1   1    1.34730    8.5301498  16.2602997   8.6180004
       244   1   1    1.34730   12.5952248  16.2602997   8.6180004
       245   1   1    1.34730   16.6602997  16.2602997   8.6180004
       246   1   1    1.34730   20.7253746  16.2602997   8.6180004
       247   1   1    1.34730   24.7904495  16.2602997   8.6180004
       248   1   1    1.34730   28.8555245  16.2602997   8.6180004
       249   1   1    1.34730   32.9205994  16.2602997   8.6180004
       250   1   1    1.34730   36.9856743  16.2602997   8.6180004
       251   1   1    1.34730    0.4000000  20.3253746   8.6180004
       252   1   1    1.34730    4.4650749  20.3253746   8.6180004
       253   1   1    1.34730    8.5301498  20.3253746   8.6180004
       254   1   1    1.34730   12.5952248  20.3253746   8.6180004
       255   1   1    1.34730   16.6602997  20.3253746   8.6180004
       256   1   1    1.34730   20.7253746  20.3253746   8.6180004
       257   1   1    1.34730   24.7904495  20.3253746   8.6180004
       258   1   1    1.34730   28.8555245  20.3253746   8.6180004
       259   1   1    1.34730   32.9205994  20.3253746   8.6180004
       260   1   1    1.34730   36.9856743  20.3253746   8.6180004
       261   1   1    1.34730    0.4000000  24.3904495   8.6180004
       262   1   1    1.34730    4.4650749  24.3904495   8.6180004
       263   1   1    1.34730    8.5301498  24.3904495   8.6180004
       264   1   1    1.34730   12.5952248  24.3904495   8.6180004
       265   1   1    1.34730   16.6602997  24.3904495   8.6180004
       266   1   1    1.34730   20.7253746  24.3904495   8.6180004
       267   1   1    1.34730   24.7904495  24.3904495   8.6180004
       268   1   1    1.34730   28.8555245  24.3904495   8.6180004
       269   1   1    1.34730   32.9205994  24.3904495   8.6180004
       270   1   1    1.34730   36.9856743  24.3904495   8.6180004
       271   1   1    1.34730    0.4000000  28.4555244   8.6180004
       272   1   1    1.34730    4.4650749  28.4555244   8.6180004
       273   1   1    1.34730    8.5301498  28.4555244   8.6180004
       274   1   1    1.34730   12.5952248  28.4555244   8.6180004
       275   1   1    1.34730   16.6602997  28.4555244   8.6180004
       276   1   1    1.34730   20.7253746  28.4555244   8.6180004
       277   1   1    1.34730   24.7904495  28.4555244   8.6180004
       278   1   1    1.34730   28.8555245  28.4555244   8.6180004
       279   1   1    1.34730   32.9205994  28.4555244   8.6180004
       280   1   1    1.34730   36.9856743  28.4555244   8.6180004
       281   1   1    1.34730    0.4000000  32.5205994   8.6180004
       282   1   1    1.34730    4.4650749  32.5205994   8.6180004
       283   1   1    1.34730    8.5301498  32.5205994   8.6180004
       284   1   1    1.34730   12.5952248  32.5205994   8.6180004
       285   1   1    1.34730   16.6602997  32.5205994   8.6180004
       286   1   1    1.34730   20.7253746  32.5205994   8.6180004
       287   1   1    1.34730   24.7904495  32.5205994   8.6180004
       288   1   1    1.34730   28.8555245  32.5205994   8.6180004
       289   1   1    1.34730   32.9205994  32.5205994   8.6180004
       290   1   1    1.34730   36.9856743  32.5205994   8.6180004
       291   1   1    1.34730    0.4000000  36.5856743   8.6180004
       292   1   1    1.34730    4.4650749  36.5856743   8.6180004
       293   1   1    1.34730    8.5301498  36.5856743   8.6180004
       294   1   1    1.34730   12.5952248  36.5856743   8.6180004
       295   1   1    1.34730   16.6602997  36.5856743   8.6180004
       296   1   1    1.34730   20.7253746  36.5856743   8.6180004
       297   1   1    1.34730   24.7904495  36.5856743   8.6180004
       298   1   1    1.34730   28.8555245  36.5856743   8.6180004
       299   1   1    1.34730   32.9205994  36.5856743   8.6180004
       300   1   1    1.34730   36.9856743  36.5856743   8.6180004
       301   1   1    1.34730    0.4000000   0.0000000  12.7270006
       302   1   1    1.34730    4.4650749   0.0000000  12.7270006
       303   1   1    1.34730    8.5301498   0.0000000  12.7270006
       304   1   1    1.34730   12.5952248   0.0000000  12.7270006
       305   1   1    1.34730   16.6602997   0.0000000  12.7270006
       306   1   1    1.34730   20.7253746   0.0000000  12.7270006
       307   1   1    1.34730   24.7904495   0.0000000  12.7270006
       308   1   1    1.34730   28.8555245   0.0000000  12.7270006
       309   1   1    1.34730   32.9205994   0.0000000  12.7270006
       310   1   1    1.34730   36.9856743   0.0000000  12.7270006
       311   1   1    1.34730    0.4000000   4.0650749  12.7270006
       312   1   1    1.34730    4.4650749   4.0650749  12.7270006
       313   1   1    1.34730    8.5301498   4.0650749  12.7270006
       314   1   1    1.34730   12.5952248   4.0650749  12.7270006
       315   1   1    1.34730   16.6602997   4.0650749  12.7270006
       316   1   1    1.34730   20.7253746   4.0650749  12.7270006
       317   1   1    1.34730   24.7904495   4.0650749  12.7270006
       318   1   1    1.34730   28.8555245   4.0650749  12.7270006
       319   1   1    1.34730   32.9205994   4.0650749  12.7270006
       320   1   1    1.34730   36.9856743   4.0650749  12.7270006
       321   1   1    1.34730    0.4000000   8.1301498  12.7270006
       322   1   1    1.34730    4.4650749   8.1301498  12.7270006
       323   1   1    1.34730    8.5301498   8.1301498  12.7270006
       324   1   1    1.34730   12.5952248   8.1301498  12.7270006
       325   1   1    1.34730   16.6602997   8.1301498  12.7270006
       326   1   1    1.34730   20.7253746   8.1301498  12.7270006
       327   1   1    1.34730   24.7904495   8.1301498  12.7270006
       328   1   1    1.34730   28.8555245   8.1301498  12.7270006
       329   1   1    1.34730   32.9205994   8.1301498  12.7270006
       330   1   1    1.34730   36.9856743   8.1301498  12.7270006
       331   1   1    1.34730    0.4000000  12.1952248  12.7270006
       332   1   1    1.34730    4.4650749  12.1952248  12.7270006
       333   1   1    1.34730    8.5301498  12.1952248  12.7270006
       334   1   1    1.34730   12.5952248  12.1952248  12.7270006
       335   1   1    1.34730   16.6602997  12.1952248  12.7270006
       336   1   1    1.34730   20.7253746  12.1952248  12.7270006
       337   1   1    1.34730   24.7904495  12.1952248  12.7270006
       338   1   1    1.34730   28.8555245  12.1952248  12.7270006
       339   1   1    1.34730   32.9205994  12.1952248  12.7270006
       340   1   1    1.34730   36.9856743  12.1952248  12.7270006
       341   1   1    1.34730    0.4000000  16.2602997  12.7270006
       342   1   1    1.34730    4.4650749  16.2602997  12.7270006
       343   1   1    1.34730    8.5301498  16.2602997  12.7270006
       344   1   1    1.34730   12.5952248  16.2602997  12.7270006
       345   1   1    1.34730   16.6602997  16.2602997  12.7270006
       346   1   1    1.34730   20.7253746  16.2602997  12.7270006
       347   1   1    1.34730   24.7904495  16.2602997  12.7270006
       348   1   1    1.34730   28.8555245  16.2602997  12.7270006
       349   1   1    1.34730   32.9205994  16.2602997  12.7270006
       350   1   1    1.34730   36.9856743  16.2602997  12.7270006
       351   1   1    1.34730    0.4000000  20.3253746  12.7270006
       352   1   1    1.34730    4.4650749  20.3253746  12.7270006
       353   1   1    1.34730    8.5301498  20.3253746  12.7270006
       354   1   1    1.34730   12.5952248  20.3253746  12.7270006
       355   1   1    1.34730   16.6602997  20.3253746  12.7270006
       356   1   1    1.34730   20.7253746  20.3253746  12.7270006
       357   1   1    1.34730   24.7904495  20.3253746  12.7270006
       358   1   1    1.34730   28.8555245  20.3253746  12.7270006
       359   1   1    1.34730   32.9205994  20.3253746  12.7270006
       360   1   1    1.34730   36.9856743  20.3253746  12.7270006
       361   1   1    1.34730    0.4000000  24.3904495  12.7270006
       362   1   1    1.34730    4.4650749  24.3904495  12.7270006
       363   1   1    1.34730    8.5301498  24.3904495  12.7270006
       364   1   1    1.34730   12.5952248  24.3904495  12.7270006
       365   1   1    1.34730   16.6602997  24.3904495  12.7270006
       366   1   1    1.34730   20.7253746  24.3904495  12.7270006
       367   1   1    1.34730   24.7904495  24.3904495  12.7270006
       368   1   1    1.34730   28.8555245  24.3904495  12.7270006
       369   1   1    1.34730   32.9205994  24.3904495  12.7270006
       370   1   1    1.34730   36.9856743  24.3904495  12.7270006
       371   1   1    1.34730    0.4000000  28.4555244  12.7270006
       372   1   1    1.34730    4.4650749  28.4555244  12.7270006
       373   1   1    1.34730    8.5301498  28.4555244  12.7270006
       374   1   1    1.34730   12.5952248  28.4555244  12.7270006
       375   1   1    1.34730   16.6602997  28.4555244  12.7270006
       376   1   1    1.34730   20.7253746  28.4555244  12.7270006
       377   1   1    1.34730   24.7904495  28.4555244  12.7270006
       378   1   1    1.34730   28.8555245  28.4555244  12.7270006
       379   1   1    1.34730   32.9205994  28.4555244  12.7270006
       380   1   1    1.34730   36.9856743  28.4555244  12.7270006
       381   1   1    1.34730    0.4000000  32.5205994  12.7270006
       382   1   1    1.34730    4.4650749  32.5205994  12.7270006
       383   1   1    1.34730    8.5301498  32.5205994  12.7270006
       384   1   1    1.34730   12.5952248  32.5205994  12.7270006
       385   1   1    1.34730   16.6602997  32.5205994  12.7270006
       386   1   1    1.34730   20.7253746  32.5205994  12.7270006
       387   1   1    1.34730   24.7904495  32.5205994  12.7270006
       388   1   1    1.34730   28.8555245  32.5205994  12.7270006
       389   1   1    1.34730   32.9205994  32.5205994  12.7270006
       390   1   1    1.34730   36.9856743  32.5205994  12.7270006
       391   1   1    1.34730    0.4000000  36.5856743  12.7270006
       392   1   1    1.34730    4.4650749  36.5856743  12.7270006
       393   1   1    1.34730    8.5301498  36.5856743  12.7270006
       394   1   1    1.34730   12.5952248  36.5856743  12.7270006
       395   1   1    1.34730   16.6602997  36.5856743  12.7270006
       396   1   1    1.34730   20.7253746  36.5856743  12.7270006
       397   1   1    1.34730   24.7904495  36.5856743  12.7270006
       398   1   1    1.34730   28.8555245  36.5856743  12.7270006
       399   1   1    1.34730   32.9205994  36.5856743  12.7270006
       400   1   1    1.34730   36.9856743  36.5856743  12.7270006
       401   1   1    1.34730    0.4000000   0.0000000  16.8360008
       402   1   1    1.34730    4.4650749   0.0000000  16.8360008
       403   1   1    1.34730    8.5301498   0.0000000  16.8360008
       404   1   1    1.34730   12.5952248   0.0000000  16.8360008
       405   1   1    1.34730   16.6602997   0.0000000  16.8360008
       406   1   1    1.34730   20.7253746   0.0000000  16.8360008
       407   1   1    1.34730   24.7904495   0.0000000  16.8360008
       408   1   1    1.34730   28.8555245   0.0000000  16.8360008
       409   1   1    1.34730   32.9205994   0.0000000  16.8360008
       410   1   1    1.34730   36.9856743   0.0000000  16.8360008
       411   1   1    1.34730    0.4000000   4.0650749  16.8360008
       412   1   1    1.34730    4.4650749   4.0650749  16.8360008
       413   1   1    1.34730    8.5301498   4.0650749  16.8360008
       414   1   1    1.34730   12.5952248   4.0650749  16.8360008
       415   1   1    1.34730   16.6602997   4.0650749  16.8360008
       416   1   1    1.34730   20.7253746   4.0650749  16.8360008
       417   1   1    1.34730   24.7904495   4.0650749  16.8360008
       418   1   1    1.34730   28.8555245   4.0650749  16.8360008
       419   1   1    1.34730   32.9205994   4.0650749  16.8360008
       420   1   1    1.34730   36.9856743   4.0650749  16.8360008
       421   1   1    1.34730    0.4000000   8.1301498  16.8360008
       422   1   1    1.34730    4.4650749   8.1301498  16.8360008
       423   1   1    1.34730    8.5301498   8.1301498  16.8360008
       424   1   1    1.34730   12.5952248   8.1301498  16.8360008
       425   1   1    1.34730   16.6602997   8.1301498  16.8360008
       426   1   1    1.34730   20.7253746   8.1301498  16.8360008
       427   1   1    1.34730   24.7904495   8.1301498  16.8360008
       428   1   1    1.34730   28.8555245   8.1301498  16.8360008
       429   1   1    1.34730   32.9205994   8.1301498  16.8360008
       430   1   1    1.34730   36.9856743   8.1301498  16.8360008
       431   1   1    1.34730    0.4000000  12.1952248  16.8360008
       432   1   1    1.34730    4.4650749  12.1952248  16.8360008
       433   1   1    1.34730    8.5301498  12.1952248  16.8360008
       434   1   1    1.34730   12.5952248  12.1952248  16.8360008
       435   1   1    1.34730   16.6602997  12.1952248  16.8360008
       436   1   1    1.34730   20.7253746  12.1952248  16.8360008
       437   1   1    1.34730   24.7904495  12.1952248  16.8360008
       438   1   1    1.34730   28.8555245  12.1952248  16.8360008
       439   1   1    1.34730   32.9205994  12.1952248  16.8360008
       440   1   1    1.34730   36.9856743  12.1952248  16.8360008
       441   1   1    1.34730    0.4000000  16.2602997  16.8360008
       442   1   1    1.34730    4.4650749  16.2602997  16.8360008
       443   1   1    1.34730    8.5301498  16.2602997  16.8360008