 #LAMMPS ABO3 domain
   
     2560 atoms
 3  atom types
   
 0.0    31.13174  xlo xhi
 0.0    31.13174  ylo yhi
 0.0    31.13174  zlo zhi
   
 Masses
   
 1   208.98039
 2    55.84500
 3    15.99940
  
   
 Atoms
   
         1   1   1    1.93753    0.0000000   0.0000000   0.0000000
         2   1   1    1.93753    7.7829351   0.0000000   0.0000000
         3   1   1    1.93753   15.5658703   0.0000000   0.0000000
         4   1   1    1.93753   23.3488054   0.0000000   0.0000000
         5   1   1    1.93753    0.0000000   7.7829351   0.0000000
         6   1   1    1.93753    7.7829351   7.7829351   0.0000000
         7   1   1    1.93753   15.5658703   7.7829351   0.0000000
         8   1   1    1.93753   23.3488054   7.7829351   0.0000000
         9   1   1    1.93753    0.0000000  15.5658703   0.0000000
        10   1   1    1.93753    7.7829351  15.5658703   0.0000000
        11   1   1    1.93753   15.5658703  15.5658703   0.0000000
        12   1   1    1.93753   23.3488054  15.5658703   0.0000000
        13   1   1    1.93753    0.0000000  23.3488054   0.0000000
        14   1   1    1.93753    7.7829351  23.3488054   0.0000000
        15   1   1    1.93753   15.5658703  23.3488054   0.0000000
        16   1   1    1.93753   23.3488054  23.3488054   0.0000000
        17   1   1    1.93753    0.0000000   0.0000000   7.7829351
        18   1   1    1.93753    7.7829351   0.0000000   7.7829351
        19   1   1    1.93753   15.5658703   0.0000000   7.7829351
        20   1   1    1.93753   23.3488054   0.0000000   7.7829351
        21   1   1    1.93753    0.0000000   7.7829351   7.7829351
        22   1   1    1.93753    7.7829351   7.7829351   7.7829351
        23   1   1    1.93753   15.5658703   7.7829351   7.7829351
        24   1   1    1.93753   23.3488054   7.7829351   7.7829351
        25   1   1    1.93753    0.0000000  15.5658703   7.7829351
        26   1   1    1.93753    7.7829351  15.5658703   7.7829351
        27   1   1    1.93753   15.5658703  15.5658703   7.7829351
        28   1   1    1.93753   23.3488054  15.5658703   7.7829351
        29   1   1    1.93753    0.0000000  23.3488054   7.7829351
        30   1   1    1.93753    7.7829351  23.3488054   7.7829351
        31   1   1    1.93753   15.5658703  23.3488054   7.7829351
        32   1   1    1.93753   23.3488054  23.3488054   7.7829351
        33   1   1    1.93753    0.0000000   0.0000000  15.5658703
        34   1   1    1.93753    7.7829351   0.0000000  15.5658703
        35   1   1    1.93753   15.5658703   0.0000000  15.5658703
        36   1   1    1.93753   23.3488054   0.0000000  15.5658703
        37   1   1    1.93753    0.0000000   7.7829351  15.5658703
        38   1   1    1.93753    7.7829351   7.7829351  15.5658703
        39   1   1    1.93753   15.5658703   7.7829351  15.5658703
        40   1   1    1.93753   23.3488054   7.7829351  15.5658703
        41   1   1    1.93753    0.0000000  15.5658703  15.5658703
        42   1   1    1.93753    7.7829351  15.5658703  15.5658703
        43   1   1    1.93753   15.5658703  15.5658703  15.5658703
        44   1   1    1.93753   23.3488054  15.5658703  15.5658703
        45   1   1    1.93753    0.0000000  23.3488054  15.5658703
        46   1   1    1.93753    7.7829351  23.3488054  15.5658703
        47   1   1    1.93753   15.5658703  23.3488054  15.5658703
        48   1   1    1.93753   23.3488054  23.3488054  15.5658703
        49   1   1    1.93753    0.0000000   0.0000000  23.3488054
        50   1   1    1.93753    7.7829351   0.0000000  23.3488054
        51   1   1    1.93753   15.5658703   0.0000000  23.3488054
        52   1   1    1.93753   23.3488054   0.0000000  23.3488054
        53   1   1    1.93753    0.0000000   7.7829351  23.3488054
        54   1   1    1.93753    7.7829351   7.7829351  23.3488054
        55   1   1    1.93753   15.5658703   7.7829351  23.3488054
        56   1   1    1.93753   23.3488054   7.7829351  23.3488054
        57   1   1    1.93753    0.0000000  15.5658703  23.3488054
        58   1   1    1.93753    7.7829351  15.5658703  23.3488054
        59   1   1    1.93753   15.5658703  15.5658703  23.3488054
        60   1   1    1.93753   23.3488054  15.5658703  23.3488054
        61   1   1    1.93753    0.0000000  23.3488054  23.3488054
        62   1   1    1.93753    7.7829351  23.3488054  23.3488054
        63   1   1    1.93753   15.5658703  23.3488054  23.3488054
        64   1   1    1.93753   23.3488054  23.3488054  23.3488054
        65   1   1    1.93753    3.8914676   0.0000000   0.0000000
        66   1   1    1.93753   11.6744027   0.0000000   0.0000000
        67   1   1    1.93753   19.4573379   0.0000000   0.0000000
        68   1   1    1.93753   27.2402730   0.0000000   0.0000000
        69   1   1    1.93753    3.8914676   7.7829351   0.0000000
        70   1   1    1.93753   11.6744027   7.7829351   0.0000000
        71   1   1    1.93753   19.4573379   7.7829351   0.0000000
        72   1   1    1.93753   27.2402730   7.7829351   0.0000000
        73   1   1    1.93753    3.8914676  15.5658703   0.0000000
        74   1   1    1.93753   11.6744027  15.5658703   0.0000000
        75   1   1    1.93753   19.4573379  15.5658703   0.0000000
        76   1   1    1.93753   27.2402730  15.5658703   0.0000000
        77   1   1    1.93753    3.8914676  23.3488054   0.0000000
        78   1   1    1.93753   11.6744027  23.3488054   0.0000000
        79   1   1    1.93753   19.4573379  23.3488054   0.0000000
        80   1   1    1.93753   27.2402730  23.3488054   0.0000000
        81   1   1    1.93753    3.8914676   0.0000000   7.7829351
        82   1   1    1.93753   11.6744027   0.0000000   7.7829351
        83   1   1    1.93753   19.4573379   0.0000000   7.7829351
        84   1   1    1.93753   27.2402730   0.0000000   7.7829351
        85   1   1    1.93753    3.8914676   7.7829351   7.7829351
        86   1   1    1.93753   11.6744027   7.7829351   7.7829351
        87   1   1    1.93753   19.4573379   7.7829351   7.7829351
        88   1   1    1.93753   27.2402730   7.7829351   7.7829351
        89   1   1    1.93753    3.8914676  15.5658703   7.7829351
        90   1   1    1.93753   11.6744027  15.5658703   7.7829351
        91   1   1    1.93753   19.4573379  15.5658703   7.7829351
        92   1   1    1.93753   27.2402730  15.5658703   7.7829351
        93   1   1    1.93753    3.8914676  23.3488054   7.7829351
        94   1   1    1.93753   11.6744027  23.3488054   7.7829351
        95   1   1    1.93753   19.4573379  23.3488054   7.7829351
        96   1   1    1.93753   27.2402730  23.3488054   7.7829351
        97   1   1    1.93753    3.8914676   0.0000000  15.5658703
        98   1   1    1.93753   11.6744027   0.0000000  15.5658703
        99   1   1    1.93753   19.4573379   0.0000000  15.5658703
       100   1   1    1.93753   27.2402730   0.0000000  15.5658703
       101   1   1    1.93753    3.8914676   7.7829351  15.5658703
       102   1   1    1.93753   11.6744027   7.7829351  15.5658703
       103   1   1    1.93753   19.4573379   7.7829351  15.5658703
       104   1   1    1.93753   27.2402730   7.7829351  15.5658703
       105   1   1    1.93753    3.8914676  15.5658703  15.5658703
       106   1   1    1.93753   11.6744027  15.5658703  15.5658703
       107   1   1    1.93753   19.4573379  15.5658703  15.5658703
       108   1   1    1.93753   27.2402730  15.5658703  15.5658703
       109   1   1    1.93753    3.8914676  23.3488054  15.5658703
       110   1   1    1.93753   11.6744027  23.3488054  15.5658703
       111   1   1    1.93753   19.4573379  23.3488054  15.5658703
       112   1   1    1.93753   27.2402730  23.3488054  15.5658703
       113   1   1    1.93753    3.8914676   0.0000000  23.3488054
       114   1   1    1.93753   11.6744027   0.0000000  23.3488054
       115   1   1    1.93753   19.4573379   0.0000000  23.3488054
       116   1   1    1.93753   27.2402730   0.0000000  23.3488054
       117   1   1    1.93753    3.8914676   7.7829351  23.3488054
       118   1   1    1.93753   11.6744027   7.7829351  23.3488054
       119   1   1    1.93753   19.4573379   7.7829351  23.3488054
       120   1   1    1.93753   27.2402730   7.7829351  23.3488054
       121   1   1    1.93753    3.8914676  15.5658703  23.3488054
       122   1   1    1.93753   11.6744027  15.5658703  23.3488054
       123   1   1    1.93753   19.4573379  15.5658703  23.3488054
       124   1   1    1.93753   27.2402730  15.5658703  23.3488054
       125   1   1    1.93753    3.8914676  23.3488054  23.3488054
       126   1   1    1.93753   11.6744027  23.3488054  23.3488054
       127   1   1    1.93753   19.4573379  23.3488054  23.3488054
       128   1   1    1.93753   27.2402730  23.3488054  23.3488054
       129   1   1    1.93753    0.0000000   3.8914676   0.0000000
       130   1   1    1.93753    7.7829351   3.8914676   0.0000000
       131   1   1    1.93753   15.5658703   3.8914676   0.0000000
       132   1   1    1.93753   23.3488054   3.8914676   0.0000000
       133   1   1    1.93753    0.0000000  11.6744027   0.0000000
       134   1   1    1.93753    7.7829351  11.6744027   0.0000000
       135   1   1    1.93753   15.5658703  11.6744027   0.0000000
       136   1   1    1.93753   23.3488054  11.6744027   0.0000000
       137   1   1    1.93753    0.0000000  19.4573379   0.0000000
       138   1   1    1.93753    7.7829351  19.4573379   0.0000000
       139   1   1    1.93753   15.5658703  19.4573379   0.0000000
       140   1   1    1.93753   23.3488054  19.4573379   0.0000000
       141   1   1    1.93753    0.0000000  27.2402730   0.0000000
       142   1   1    1.93753    7.7829351  27.2402730   0.0000000
       143   1   1    1.93753   15.5658703  27.2402730   0.0000000
       144   1   1    1.93753   23.3488054  27.2402730   0.0000000
       145   1   1    1.93753    0.0000000   3.8914676   7.7829351
       146   1   1    1.93753    7.7829351   3.8914676   7.7829351
       147   1   1    1.93753   15.5658703   3.8914676   7.7829351
       148   1   1    1.93753   23.3488054   3.8914676   7.7829351
       149   1   1    1.93753    0.0000000  11.6744027   7.7829351
       150   1   1    1.93753    7.7829351  11.6744027   7.7829351
       151   1   1    1.93753   15.5658703  11.6744027   7.7829351
       152   1   1    1.93753   23.3488054  11.6744027   7.7829351
       153   1   1    1.93753    0.0000000  19.4573379   7.7829351
       154   1   1    1.93753    7.7829351  19.4573379   7.7829351
       155   1   1    1.93753   15.5658703  19.4573379   7.7829351
       156   1   1    1.93753   23.3488054  19.4573379   7.7829351
       157   1   1    1.93753    0.0000000  27.2402730   7.7829351
       158   1   1    1.93753    7.7829351  27.2402730   7.7829351
       159   1   1    1.93753   15.5658703  27.2402730   7.7829351
       160   1   1    1.93753   23.3488054  27.2402730   7.7829351
       161   1   1    1.93753    0.0000000   3.8914676  15.5658703
       162   1   1    1.93753    7.7829351   3.8914676  15.5658703
       163   1   1    1.93753   15.5658703   3.8914676  15.5658703
       164   1   1    1.93753   23.3488054   3.8914676  15.5658703
       165   1   1    1.93753    0.0000000  11.6744027  15.5658703
       166   1   1    1.93753    7.7829351  11.6744027  15.5658703
       167   1   1    1.93753   15.5658703  11.6744027  15.5658703
       168   1   1    1.93753   23.3488054  11.6744027  15.5658703
       169   1   1    1.93753    0.0000000  19.4573379  15.5658703
       170   1   1    1.93753    7.7829351  19.4573379  15.5658703
       171   1   1    1.93753   15.5658703  19.4573379  15.5658703
       172   1   1    1.93753   23.3488054  19.4573379  15.5658703
       173   1   1    1.93753    0.0000000  27.2402730  15.5658703
       174   1   1    1.93753    7.7829351  27.2402730  15.5658703
       175   1   1    1.93753   15.5658703  27.2402730  15.5658703
       176   1   1    1.93753   23.3488054  27.2402730  15.5658703
       177   1   1    1.93753    0.0000000   3.8914676  23.3488054
       178   1   1    1.93753    7.7829351   3.8914676  23.3488054
       179   1   1    1.93753   15.5658703   3.8914676  23.3488054
       180   1   1    1.93753   23.3488054   3.8914676  23.3488054
       181   1   1    1.93753    0.0000000  11.6744027  23.3488054
       182   1   1    1.93753    7.7829351  11.6744027  23.3488054
       183   1   1    1.93753   15.5658703  11.6744027  23.3488054
       184   1   1    1.93753   23.3488054  11.6744027  23.3488054
       185   1   1    1.93753    0.0000000  19.4573379  23.3488054
       186   1   1    1.93753    7.7829351  19.4573379  23.3488054
       187   1   1    1.93753   15.5658703  19.4573379  23.3488054
       188   1   1    1.93753   23.3488054  19.4573379  23.3488054
       189   1   1    1.93753    0.0000000  27.2402730  23.3488054
       190   1   1    1.93753    7.7829351  27.2402730  23.3488054
       191   1   1    1.93753   15.5658703  27.2402730  23.3488054
       192   1   1    1.93753   23.3488054  27.2402730  23.3488054
       193   1   1    1.93753    3.8914676   3.8914676   0.0000000
       194   1   1    1.93753   11.6744027   3.8914676   0.0000000
       195   1   1    1.93753   19.4573379   3.8914676   0.0000000
       196   1   1    1.93753   27.2402730   3.8914676   0.0000000
       197   1   1    1.93753    3.8914676  11.6744027   0.0000000
       198   1   1    1.93753   11.6744027  11.6744027   0.0000000
       199   1   1    1.93753   19.4573379  11.6744027   0.0000000
       200   1   1    1.93753   27.2402730  11.6744027   0.0000000
       201   1   1    1.93753    3.8914676  19.4573379   0.0000000
       202   1   1    1.93753   11.6744027  19.4573379   0.0000000
       203   1   1    1.93753   19.4573379  19.4573379   0.0000000
       204   1   1    1.93753   27.2402730  19.4573379   0.0000000
       205   1   1    1.93753    3.8914676  27.2402730   0.0000000
       206   1   1    1.93753   11.6744027  27.2402730   0.0000000
       207   1   1    1.93753   19.4573379  27.2402730   0.0000000
       208   1   1    1.93753   27.2402730  27.2402730   0.0000000
       209   1   1    1.93753    3.8914676   3.8914676   7.7829351
       210   1   1    1.93753   11.6744027   3.8914676   7.7829351
       211   1   1    1.93753   19.4573379   3.8914676   7.7829351
       212   1   1    1.93753   27.2402730   3.8914676   7.7829351
       213   1   1    1.93753    3.8914676  11.6744027   7.7829351
       214   1   1    1.93753   11.6744027  11.6744027   7.7829351
       215   1   1    1.93753   19.4573379  11.6744027   7.7829351
       216   1   1    1.93753   27.2402730  11.6744027   7.7829351
       217   1   1    1.93753    3.8914676  19.4573379   7.7829351
       218   1   1    1.93753   11.6744027  19.4573379   7.7829351
       219   1   1    1.93753   19.4573379  19.4573379   7.7829351
       220   1   1    1.93753   27.2402730  19.4573379   7.7829351
       221   1   1    1.93753    3.8914676  27.2402730   7.7829351
       222   1   1    1.93753   11.6744027  27.2402730   7.7829351
       223   1   1    1.93753   19.4573379  27.2402730   7.7829351
       224   1   1    1.93753   27.2402730  27.2402730   7.7829351
       225   1   1    1.93753    3.8914676   3.8914676  15.5658703
       226   1   1    1.93753   11.6744027   3.8914676  15.5658703
       227   1   1    1.93753   19.4573379   3.8914676  15.5658703
       228   1   1    1.93753   27.2402730   3.8914676  15.5658703
       229   1   1    1.93753    3.8914676  11.6744027  15.5658703
       230   1   1    1.93753   11.6744027  11.6744027  15.5658703
       231   1   1    1.93753   19.4573379  11.6744027  15.5658703
       232   1   1    1.93753   27.2402730  11.6744027  15.5658703
       233   1   1    1.93753    3.8914676  19.4573379  15.5658703
       234   1   1    1.93753   11.6744027  19.4573379  15.5658703
       235   1   1    1.93753   19.4573379  19.4573379  15.5658703
       236   1   1    1.93753   27.2402730  19.4573379  15.5658703
       237   1   1    1.93753    3.8914676  27.2402730  15.5658703
       238   1   1    1.93753   11.6744027  27.2402730  15.5658703
       239   1   1    1.93753   19.4573379  27.2402730  15.5658703
       240   1   1    1.93753   27.2402730  27.2402730  15.5658703
       241   1   1    1.93753    3.8914676   3.8914676  23.3488054
       242   1   1    1.93753   11.6744027   3.8914676  23.3488054
       243   1   1    1.93753   19.4573379   3.8914676  23.3488054
       244   1   1    1.93753   27.2402730   3.8914676  23.3488054
       245   1   1    1.93753    3.8914676  11.6744027  23.3488054
       246   1   1    1.93753   11.6744027  11.6744027  23.3488054
       247   1   1    1.93753   19.4573379  11.6744027  23.3488054
       248   1   1    1.93753   27.2402730  11.6744027  23.3488054
       249   1   1    1.93753    3.8914676  19.4573379  23.3488054
       250   1   1    1.93753   11.6744027  19.4573379  23.3488054
       251   1   1    1.93753   19.4573379  19.4573379  23.3488054
       252   1   1    1.93753   27.2402730  19.4573379  23.3488054
       253   1   1    1.93753    3.8914676  27.2402730  23.3488054
       254   1   1    1.93753   11.6744027  27.2402730  23.3488054
       255   1   1    1.93753   19.4573379  27.2402730  23.3488054
       256   1   1    1.93753   27.2402730  27.2402730  23.3488054
       257   1   1    1.93753    0.0000000   0.0000000   3.8914676
       258   1   1    1.93753    7.7829351   0.0000000   3.8914676
       259   1   1    1.93753   15.5658703   0.0000000   3.8914676
       260   1   1    1.93753   23.3488054   0.0000000   3.8914676
       261   1   1    1.93753    0.0000000   7.7829351   3.8914676
       262   1   1    1.93753    7.7829351   7.7829351   3.8914676
       263   1   1    1.93753   15.5658703   7.7829351   3.8914676
       264   1   1    1.93753   23.3488054   7.7829351   3.8914676
       265   1   1    1.93753    0.0000000  15.5658703   3.8914676
       266   1   1    1.93753    7.7829351  15.5658703   3.8914676
       267   1   1    1.93753   15.5658703  15.5658703   3.8914676
       268   1   1    1.93753   23.3488054  15.5658703   3.8914676
       269   1   1    1.93753    0.0000000  23.3488054   3.8914676
       270   1   1    1.93753    7.7829351  23.3488054   3.8914676
       271   1   1    1.93753   15.5658703  23.3488054   3.8914676
       272   1   1    1.93753   23.3488054  23.3488054   3.8914676
       273   1   1    1.93753    0.0000000   0.0000000  11.6744027
       274   1   1    1.93753    7.7829351   0.0000000  11.6744027
       275   1   1    1.93753   15.5658703   0.0000000  11.6744027
       276   1   1    1.93753   23.3488054   0.0000000  11.6744027
       277   1   1    1.93753    0.0000000   7.7829351  11.6744027
       278   1   1    1.93753    7.7829351   7.7829351  11.6744027
       279   1   1    1.93753   15.5658703   7.7829351  11.6744027
       280   1   1    1.93753   23.3488054   7.7829351  11.6744027
       281   1   1    1.93753    0.0000000  15.5658703  11.6744027
       282   1   1    1.93753    7.7829351  15.5658703  11.6744027
       283   1   1    1.93753   15.5658703  15.5658703  11.6744027
       284   1   1    1.93753   23.3488054  15.5658703  11.6744027
       285   1   1    1.93753    0.0000000  23.3488054  11.6744027
       286   1   1    1.93753    7.7829351  23.3488054  11.6744027
       287   1   1    1.93753   15.5658703  23.3488054  11.6744027
       288   1   1    1.93753   23.3488054  23.3488054  11.6744027
       289   1   1    1.93753    0.0000000   0.0000000  19.4573379
       290   1   1    1.93753    7.7829351   0.0000000  19.4573379
       291   1   1    1.93753   15.5658703   0.0000000  19.4573379
       292   1   1    1.93753   23.3488054   0.0000000  19.4573379
       293   1   1    1.93753    0.0000000   7.7829351  19.4573379
       294   1   1    1.93753    7.7829351   7.7829351  19.4573379
       295   1   1    1.93753   15.5658703   7.7829351  19.4573379
       296   1   1    1.93753   23.3488054   7.7829351  19.4573379
       297   1   1    1.93753    0.0000000  15.5658703  19.4573379
       298   1   1    1.93753    7.7829351  15.5658703  19.4573379
       299   1   1    1.93753   15.5658703  15.5658703  19.4573379
       300   1   1    1.93753   23.3488054  15.5658703  19.4573379
       301   1   1    1.93753    0.0000000  23.3488054  19.4573379
       302   1   1    1.93753    7.7829351  23.3488054  19.4573379
       303   1   1    1.93753   15.5658703  23.3488054  19.4573379
       304   1   1    1.93753   23.3488054  23.3488054  19.4573379
       305   1   1    1.93753    0.0000000   0.0000000  27.2402730
       306   1   1    1.93753    7.7829351   0.0000000  27.2402730
       307   1   1    1.93753   15.5658703   0.0000000  27.2402730
       308   1   1    1.93753   23.3488054   0.0000000  27.2402730
       309   1   1    1.93753    0.0000000   7.7829351  27.2402730
       310   1   1    1.93753    7.7829351   7.7829351  27.2402730
       311   1   1    1.93753   15.5658703   7.7829351  27.2402730
       312   1   1    1.93753   23.3488054   7.7829351  27.2402730
       313   1   1    1.93753    0.0000000  15.5658703  27.2402730
       314   1   1    1.93753    7.7829351  15.5658703  27.2402730
       315   1   1    1.93753   15.5658703  15.5658703  27.2402730
       316   1   1    1.93753   23.3488054  15.5658703  27.2402730
       317   1   1    1.93753    0.0000000  23.3488054  27.2402730
       318   1   1    1.93753    7.7829351  23.3488054  27.2402730
       319   1   1    1.93753   15.5658703  23.3488054  27.2402730
       320   1   1    1.93753   23.3488054  23.3488054  27.2402730
       321   1   1    1.93753    3.8914676   0.0000000   3.8914676
       322   1   1    1.93753   11.6744027   0.0000000   3.8914676
       323   1   1    1.93753   19.4573379   0.0000000   3.8914676
       324   1   1    1.93753   27.2402730   0.0000000   3.8914676
       325   1   1    1.93753    3.8914676   7.7829351   3.8914676
       326   1   1    1.93753   11.6744027   7.7829351   3.8914676
       327   1   1    1.93753   19.4573379   7.7829351   3.8914676
       328   1   1    1.93753   27.2402730   7.7829351   3.8914676
       329   1   1    1.93753    3.8914676  15.5658703   3.8914676
       330   1   1    1.93753   11.6744027  15.5658703   3.8914676
       331   1   1    1.93753   19.4573379  15.5658703   3.8914676
       332   1   1    1.93753   27.2402730  15.5658703   3.8914676
       333   1   1    1.93753    3.8914676  23.3488054   3.8914676
       334   1   1    1.93753   11.6744027  23.3488054   3.8914676
       335   1   1    1.93753   19.4573379  23.3488054   3.8914676
       336   1   1    1.93753   27.2402730  23.3488054   3.8914676
       337   1   1    1.93753    3.8914676   0.0000000  11.6744027
       338   1   1    1.93753   11.6744027   0.0000000  11.6744027
       339   1   1    1.93753   19.4573379   0.0000000  11.6744027
       340   1   1    1.93753   27.2402730   0.0000000  11.6744027
       341   1   1    1.93753    3.8914676   7.7829351  11.6744027
       342   1   1    1.93753   11.6744027   7.7829351  11.6744027
       343   1   1    1.93753   19.4573379   7.7829351  11.6744027
       344   1   1    1.93753   27.2402730   7.7829351  11.6744027
       345   1   1    1.93753    3.8914676  15.5658703  11.6744027
       346   1   1    1.93753   11.6744027  15.5658703  11.6744027
       347   1   1    1.93753   19.4573379  15.5658703  11.6744027
       348   1   1    1.93753   27.2402730  15.5658703  11.6744027
       349   1   1    1.93753    3.8914676  23.3488054  11.6744027
       350   1   1    1.93753   11.6744027  23.3488054  11.6744027
       351   1   1    1.93753   19.4573379  23.3488054  11.6744027
       352   1   1    1.93753   27.2402730  23.3488054  11.6744027
       353   1   1    1.93753    3.8914676   0.0000000  19.4573379
       354   1   1    1.93753   11.6744027   0.0000000  19.4573379
       355   1   1    1.93753   19.4573379   0.0000000  19.4573379
       356   1   1    1.93753   27.2402730   0.0000000  19.4573379
       357   1   1    1.93753    3.8914676   7.7829351  19.4573379
       358   1   1    1.93753   11.6744027   7.7829351  19.4573379
       359   1   1    1.93753   19.4573379   7.7829351  19.4573379
       360   1   1    1.93753   27.2402730   7.7829351  19.4573379
       361   1   1    1.93753    3.8914676  15.5658703  19.4573379
       362   1   1    1.93753   11.6744027  15.5658703  19.4573379
       363   1   1    1.93753   19.4573379  15.5658703  19.4573379
       364   1   1    1.93753   27.2402730  15.5658703  19.4573379
       365   1   1    1.93753    3.8914676  23.3488054  19.4573379
       366   1   1    1.93753   11.6744027  23.3488054  19.4573379
       367   1   1    1.93753   19.4573379  23.3488054  19.4573379
       368   1   1    1.93753   27.2402730  23.3488054  19.4573379
       369   1   1    1.93753    3.8914676   0.0000000  27.2402730
       370   1   1    1.93753   11.6744027   0.0000000  27.2402730
       371   1   1    1.93753   19.4573379   0.0000000  27.2402730
       372   1   1    1.93753   27.2402730   0.0000000  27.2402730
       373   1   1    1.93753    3.8914676   7.7829351  27.2402730
       374   1   1    1.93753   11.6744027   7.7829351  27.2402730
       375   1   1    1.93753   19.4573379   7.7829351  27.2402730
       376   1   1    1.93753   27.2402730   7.7829351  27.2402730
       377   1   1    1.93753    3.8914676  15.5658703  27.2402730
       378   1   1    1.93753   11.6744027  15.5658703  27.2402730
       379   1   1    1.93753   19.4573379  15.5658703  27.2402730
       380   1   1    1.93753   27.2402730  15.5658703  27.2402730
       381   1   1    1.93753    3.8914676  23.3488054  27.2402730
       382   1   1    1.93753   11.6744027  23.3488054  27.2402730
       383   1   1    1.93753   19.4573379  23.3488054  27.2402730
       384   1   1    1.93753   27.2402730  23.3488054  27.2402730
       385   1   1    1.93753    0.0000000   3.8914676   3.8914676
       386   1   1    1.93753    7.7829351   3.8914676   3.8914676
       387   1   1    1.93753   15.5658703   3.8914676   3.8914676
       388   1   1    1.93753   23.3488054   3.8914676   3.8914676
       389   1   1    1.93753    0.0000000  11.6744027   3.8914676
       390   1   1    1.93753    7.7829351  11.6744027   3.8914676
       391   1   1    1.93753   15.5658703  11.6744027   3.8914676
       392   1   1    1.93753   23.3488054  11.6744027   3.8914676
       393   1   1    1.93753    0.0000000  19.4573379   3.8914676
       394   1   1    1.93753    7.7829351  19.4573379   3.8914676
       395   1   1    1.93753   15.5658703  19.4573379   3.8914676
       396   1   1    1.93753   23.3488054  19.4573379   3.8914676
       397   1   1    1.93753    0.0000000  27.2402730   3.8914676
       398   1   1    1.93753    7.7829351  27.2402730   3.8914676
       399   1   1    1.93753   15.5658703  27.2402730   3.8914676
       400   1   1    1.93753   23.3488054  27.2402730   3.8914676
       401   1   1    1.93753    0.0000000   3.8914676  11.6744027
       402   1   1    1.93753    7.7829351   3.8914676  11.6744027
       403   1   1    1.93753   15.5658703   3.8914676  11.6744027
       404   1   1    1.93753   23.3488054   3.8914676  11.6744027
       405   1   1    1.93753    0.0000000  11.6744027  11.6744027
       406   1   1    1.93753    7.7829351  11.6744027  11.6744027
       407   1   1    1.93753   15.5658703  11.6744027  11.6744027
       408   1   1    1.93753   23.3488054  11.6744027  11.6744027
       409   1   1    1.93753    0.0000000  19.4573379  11.6744027
       410   1   1    1.93753    7.7829351  19.4573379  11.6744027
       411   1   1    1.93753   15.5658703  19.4573379  11.6744027
       412   1   1    1.93753   23.3488054  19.4573379  11.6744027
       413   1   1    1.93753    0.0000000  27.2402730  11.6744027
       414   1   1    1.93753    7.7829351  27.2402730  11.6744027
       415   1   1    1.93753   15.5658703  27.2402730  11.6744027
       416   1   1    1.93753   23.3488054  27.2402730  11.6744027
       417   1   1    1.93753    0.0000000   3.8914676  19.4573379
       418   1   1    1.93753    7.7829351   3.8914676  19.4573379
       419   1   1    1.93753   15.5658703   3.8914676  19.4573379
       420   1   1    1.93753   23.3488054   3.8914676  19.4573379
       421   1   1    1.93753    0.0000000  11.6744027  19.4573379
       422   1   1    1.93753    7.7829351  11.6744027  19.4573379
       423   1   1    1.93753   15.5658703  11.6744027  19.4573379
       424   1   1    1.93753   23.3488054  11.6744027  19.4573379
       425   1   1    1.93753    0.0000000  19.4573379  19.4573379
       426   1   1    1.93753    7.7829351  19.4573379  19.4573379
       427   1   1    1.93753   15.5658703  19.4573379  19.4573379
       428   1   1    1.93753   23.3488054  19.4573379  19.4573379
       429   1   1    1.93753    0.0000000  27.2402730  19.4573379
       430   1   1    1.93753    7.7829351  27.2402730  19.4573379
       431   1   1    1.93753   15.5658703  27.2402730  19.4573379
       432   1   1    1.93753   23.3488054  27.2402730  19.4573379
       433   1   1    1.93753    0.0000000   3.8914676  27.2402730
       434   1   1    1.93753    7.7829351   3.8914676  27.2402730
       435   1   1    1.93753   15.5658703   3.8914676  27.2402730
       436   1   1    1.93753   23.3488054   3.8914676  27.2402730
       437   1   1    1.93753    0.0000000  11.6744027  27.2402730
       438   1   1    1.93753    7.7829351  11.6744027  27.2402730
       439   1   1    1.93753   15.5658703  11.6744027  27.2402730
       440   1   1    1.93753   23.3488054  11.6744027  27.2402730
       441   1   1    1.93753    0.0000000  19.4573379  27.2402730
       442   1   1    1.93753    7.7829351  19.4573379  27.2402730
       443   1   1    1.93753   15.5658703  19.4573379  27.2402730
       444   1   1    1.93753   23.3488054  19.4573379  27.2402730