 #LAMMPS ABO3 domain
   
       40 atoms
       24 angles
 3  atom types
 1 angle types
   
 0.0     7.78294  xlo xhi
 0.0     7.78294  ylo yhi
 0.0     7.78294  zlo zhi
   
 Masses
   
 1   208.98039
 2    55.84500
 3    15.99940
  
   
 Atoms
   
         1   1   1    1.93753      0.000    0.2826740   0.2837923   0.2826185    0    0    0
         2   1   1    1.93753      0.000    4.1742971   0.2841679   0.2819992    0    0    0
         3   1   1    1.93753      0.000    0.2824613   4.1757862   0.2830271    0    0    0
         4   1   1    1.93753      0.000    4.1743155   4.1758263   0.2824989    0    0    0
         5   1   1    1.93753      0.000    0.2826981   0.2841417   4.1735266    0    0    0
         6   1   1    1.93753      0.000    4.1742115   0.2837862   4.1741231    0    0    0
         7   1   1    1.93753      0.000    0.2828391   4.1759338   4.1738240    0    0    0
         8   1   1    1.93753      0.000    4.1738983   4.1758277   4.1744695    0    0    0
         9   1   2    1.77706      2.500    2.0509020   2.0521014   2.0504195    0    0   -1
        10   1   2    1.77706      2.500    5.9421294   2.0521079   2.0505711    0    0    1
        11   1   2    1.77706      2.500    2.0510236   5.9437897   2.0509279    0    0    1
        12   1   2    1.77706      2.500    5.9420348   5.9438775   2.0511051    0    0   -1
        13   1   2    1.77706      2.500    2.0505864   2.0521195   5.9419795    0    0    1
        14   1   2    1.77706      2.500    5.9423637   2.0522047   5.9418927    0    0   -1
        15   1   2    1.77706      2.500    2.0505413   5.9438865   5.9425532    0    0   -1
        16   1   2    1.77706      2.500    5.9424883   5.9437550   5.9424756    0    0    1
        17   1   3   -1.23820      0.000    1.6075196   2.1569253   0.0389940    0    0    0
        18   1   3   -1.23820      0.000    6.0475694   1.6096861   0.0389864    0    0    0
        19   1   3   -1.23820      0.000    2.1550420   5.5014739   0.0396191    0    0    0
        20   1   3   -1.23820      0.000    5.5006711   6.0485358   0.0396660    0    0    0
        21   1   3   -1.23820      0.000    2.1560737   1.6093431   3.9304464    0    0    0
        22   1   3   -1.23820      0.000    5.4990170   2.1568617   3.9305107    0    0    0
        23   1   3   -1.23820      0.000    1.6091650   6.0487129   3.9310632    0    0    0
        24   1   3   -1.23820      0.000    6.0465016   5.5016734   3.9311575    0    0    0
        25   1   3   -1.23820      0.000    2.1557461   0.0408406   1.6080979    0    0    0
        26   1   3   -1.23820      0.000    5.4996319   0.0409898   2.1555789    0    0    0
        27   1   3   -1.23820      0.000    1.6087971   3.9320610   2.1557409    0    0    0
        28   1   3   -1.23820      0.000    6.0466619   3.9321583   1.6086287    0    0    0
        29   1   3   -1.23820      0.000    1.6079986   0.0409801   6.0471420    0    0    0
        30   1   3   -1.23820      0.000    6.0471909   0.0408946   5.4999236    0    0    0
        31   1   3   -1.23820      0.000    2.1552184   3.9321772   5.4998202    0    0    0
        32   1   3   -1.23820      0.000    5.5001114   3.9320979   6.0471716    0    0    0
        33   1   3   -1.23820      0.000    0.0393299   1.6098803   2.1556639    0    0    0
        34   1   3   -1.23820      0.000    3.9307736   2.1570270   1.6070905    0    0    0
        35   1   3   -1.23820      0.000    0.0393342   6.0481928   1.6097467    0    0    0
        36   1   3   -1.23820      0.000    3.9308841   5.5013421   2.1556763    0    0    0
        37   1   3   -1.23820      0.000    0.0392962   2.1572004   5.4984759    0    0    0
        38   1   3   -1.23820      0.000    3.9307260   1.6099474   6.0470861    0    0    0
        39   1   3   -1.23820      0.000    0.0394323   5.5012403   6.0471548    0    0    0
        40   1   3   -1.23820      0.000    3.9307591   6.0482403   5.5012372    0    0    0
   
 Angles
   
                    1           1                    9                   21                   13
                    2           1                   10                   22                   14
                    3           1                   11                   23                   15
                    4           1                   12                   24                   16
                    5           1                   13                   17                    9
                    6           1                   14                   18                   10
                    7           1                   15                   19                   11
                    8           1                   16                   20                   12
                    9           1                    9                   27                   11
                   10           1                   10                   28                   12
                   11           1                   11                   25                    9
                   12           1                   12                   26                   10
                   13           1                   13                   31                   15
                   14           1                   14                   32                   16
                   15           1                   15                   29                   13
                   16           1                   16                   30                   14
                   17           1                    9                   34                   10
                   18           1                   10                   33                    9
                   19           1                   11                   36                   12
                   20           1                   12                   35                   11
                   21           1                   13                   38                   14
                   22           1                   14                   37                   13
                   23           1                   15                   40                   16
                   24           1                   16                   39                   15
