 #LAMMPS ABO3 domain
   
      800 atoms
      480 angles
 3  atom types
 1 angle types
   
 0.0    56.56854  xlo xhi
 0.0    11.31371  ylo yhi
 0.0    16.00000  zlo zhi
   
 Masses
   
 1   208.98039
 2    55.84500
 3    15.99940
  
   
 Atoms
   
         1   1   1    1.93753      0.000    0.0000000  -0.4490731   0.3175427    0    0    0
         2   1   1    1.93753      0.000    5.6568542  -0.4490731   0.3175427    0    0    0
         3   1   1    1.93753      0.000   11.3137083  -0.4490731   0.3175427    0    0    0
         4   1   1    1.93753      0.000   16.9705625  -0.4490731   0.3175427    0    0    0
         5   1   1    1.93753      0.000   22.6274166  -0.4490731   0.3175427    0    0    0
         6   1   1    1.93753      0.000   28.2842708   0.4490731  -0.3175427    0    0    0
         7   1   1    1.93753      0.000   33.9411249   0.4490731  -0.3175427    0    0    0
         8   1   1    1.93753      0.000   39.5979791   0.4490731  -0.3175427    0    0    0
         9   1   1    1.93753      0.000   45.2548332   0.4490731  -0.3175427    0    0    0
        10   1   1    1.93753      0.000   50.9116874   0.4490731  -0.3175427    0    0    0
        11   1   1    1.93753      0.000    0.0000000   5.2077810   0.3175427    0    0    0
        12   1   1    1.93753      0.000    5.6568542   5.2077810   0.3175427    0    0    0
        13   1   1    1.93753      0.000   11.3137083   5.2077810   0.3175427    0    0    0
        14   1   1    1.93753      0.000   16.9705625   5.2077810   0.3175427    0    0    0
        15   1   1    1.93753      0.000   22.6274166   5.2077810   0.3175427    0    0    0
        16   1   1    1.93753      0.000   28.2842708   6.1059273  -0.3175427    0    0    0
        17   1   1    1.93753      0.000   33.9411249   6.1059273  -0.3175427    0    0    0
        18   1   1    1.93753      0.000   39.5979791   6.1059273  -0.3175427    0    0    0
        19   1   1    1.93753      0.000   45.2548332   6.1059273  -0.3175427    0    0    0
        20   1   1    1.93753      0.000   50.9116874   6.1059273  -0.3175427    0    0    0
        21   1   1    1.93753      0.000    0.0000000  -0.4490731   4.3175427    0    0    0
        22   1   1    1.93753      0.000    5.6568542  -0.4490731   4.3175427    0    0    0
        23   1   1    1.93753      0.000   11.3137083  -0.4490731   4.3175427    0    0    0
        24   1   1    1.93753      0.000   16.9705625  -0.4490731   4.3175427    0    0    0
        25   1   1    1.93753      0.000   22.6274166  -0.4490731   4.3175427    0    0    0
        26   1   1    1.93753      0.000   28.2842708   0.4490731   3.6824573    0    0    0
        27   1   1    1.93753      0.000   33.9411249   0.4490731   3.6824573    0    0    0
        28   1   1    1.93753      0.000   39.5979791   0.4490731   3.6824573    0    0    0
        29   1   1    1.93753      0.000   45.2548332   0.4490731   3.6824573    0    0    0
        30   1   1    1.93753      0.000   50.9116874   0.4490731   3.6824573    0    0    0
        31   1   1    1.93753      0.000    0.0000000   5.2077810   4.3175427    0    0    0
        32   1   1    1.93753      0.000    5.6568542   5.2077810   4.3175427    0    0    0
        33   1   1    1.93753      0.000   11.3137083   5.2077810   4.3175427    0    0    0
        34   1   1    1.93753      0.000   16.9705625   5.2077810   4.3175427    0    0    0
        35   1   1    1.93753      0.000   22.6274166   5.2077810   4.3175427    0    0    0
        36   1   1    1.93753      0.000   28.2842708   6.1059273   3.6824573    0    0    0
        37   1   1    1.93753      0.000   33.9411249   6.1059273   3.6824573    0    0    0
        38   1   1    1.93753      0.000   39.5979791   6.1059273   3.6824573    0    0    0
        39   1   1    1.93753      0.000   45.2548332   6.1059273   3.6824573    0    0    0
        40   1   1    1.93753      0.000   50.9116874   6.1059273   3.6824573    0    0    0
        41   1   1    1.93753      0.000    0.0000000  -0.4490731   8.3175427    0    0    0
        42   1   1    1.93753      0.000    5.6568542  -0.4490731   8.3175427    0    0    0
        43   1   1    1.93753      0.000   11.3137083  -0.4490731   8.3175427    0    0    0
        44   1   1    1.93753      0.000   16.9705625  -0.4490731   8.3175427    0    0    0
        45   1   1    1.93753      0.000   22.6274166  -0.4490731   8.3175427    0    0    0
        46   1   1    1.93753      0.000   28.2842708   0.4490731   7.6824573    0    0    0
        47   1   1    1.93753      0.000   33.9411249   0.4490731   7.6824573    0    0    0
        48   1   1    1.93753      0.000   39.5979791   0.4490731   7.6824573    0    0    0
        49   1   1    1.93753      0.000   45.2548332   0.4490731   7.6824573    0    0    0
        50   1   1    1.93753      0.000   50.9116874   0.4490731   7.6824573    0    0    0
        51   1   1    1.93753      0.000    0.0000000   5.2077810   8.3175427    0    0    0
        52   1   1    1.93753      0.000    5.6568542   5.2077810   8.3175427    0    0    0
        53   1   1    1.93753      0.000   11.3137083   5.2077810   8.3175427    0    0    0
        54   1   1    1.93753      0.000   16.9705625   5.2077810   8.3175427    0    0    0
        55   1   1    1.93753      0.000   22.6274166   5.2077810   8.3175427    0    0    0
        56   1   1    1.93753      0.000   28.2842708   6.1059273   7.6824573    0    0    0
        57   1   1    1.93753      0.000   33.9411249   6.1059273   7.6824573    0    0    0
        58   1   1    1.93753      0.000   39.5979791   6.1059273   7.6824573    0    0    0
        59   1   1    1.93753      0.000   45.2548332   6.1059273   7.6824573    0    0    0
        60   1   1    1.93753      0.000   50.9116874   6.1059273   7.6824573    0    0    0
        61   1   1    1.93753      0.000    0.0000000  -0.4490731  12.3175427    0    0    0
        62   1   1    1.93753      0.000    5.6568542  -0.4490731  12.3175427    0    0    0
        63   1   1    1.93753      0.000   11.3137083  -0.4490731  12.3175427    0    0    0
        64   1   1    1.93753      0.000   16.9705625  -0.4490731  12.3175427    0    0    0
        65   1   1    1.93753      0.000   22.6274166  -0.4490731  12.3175427    0    0    0
        66   1   1    1.93753      0.000   28.2842708   0.4490731  11.6824573    0    0    0
        67   1   1    1.93753      0.000   33.9411249   0.4490731  11.6824573    0    0    0
        68   1   1    1.93753      0.000   39.5979791   0.4490731  11.6824573    0    0    0
        69   1   1    1.93753      0.000   45.2548332   0.4490731  11.6824573    0    0    0
        70   1   1    1.93753      0.000   50.9116874   0.4490731  11.6824573    0    0    0
        71   1   1    1.93753      0.000    0.0000000   5.2077810  12.3175427    0    0    0
        72   1   1    1.93753      0.000    5.6568542   5.2077810  12.3175427    0    0    0
        73   1   1    1.93753      0.000   11.3137083   5.2077810  12.3175427    0    0    0
        74   1   1    1.93753      0.000   16.9705625   5.2077810  12.3175427    0    0    0
        75   1   1    1.93753      0.000   22.6274166   5.2077810  12.3175427    0    0    0
        76   1   1    1.93753      0.000   28.2842708   6.1059273  11.6824573    0    0    0
        77   1   1    1.93753      0.000   33.9411249   6.1059273  11.6824573    0    0    0
        78   1   1    1.93753      0.000   39.5979791   6.1059273  11.6824573    0    0    0
        79   1   1    1.93753      0.000   45.2548332   6.1059273  11.6824573    0    0    0
        80   1   1    1.93753      0.000   50.9116874   6.1059273  11.6824573    0    0    0
        81   1   1    1.93753      0.000    2.8284271   2.3793539   0.3175427    0    0    0
        82   1   1    1.93753      0.000    8.4852812   2.3793539   0.3175427    0    0    0
        83   1   1    1.93753      0.000   14.1421354   2.3793539   0.3175427    0    0    0
        84   1   1    1.93753      0.000   19.7989895   2.3793539   0.3175427    0    0    0
        85   1   1    1.93753      0.000   25.4558437   2.3793539   0.3175427    0    0    0
        86   1   1    1.93753      0.000   31.1126978   3.2775002  -0.3175427    0    0    0
        87   1   1    1.93753      0.000   36.7695520   3.2775002  -0.3175427    0    0    0
        88   1   1    1.93753      0.000   42.4264061   3.2775002  -0.3175427    0    0    0
        89   1   1    1.93753      0.000   48.0832603   3.2775002  -0.3175427    0    0    0
        90   1   1    1.93753      0.000   53.7401145   3.2775002  -0.3175427    0    0    0
        91   1   1    1.93753      0.000    2.8284271   8.0362081   0.3175427    0    0    0
        92   1   1    1.93753      0.000    8.4852812   8.0362081   0.3175427    0    0    0
        93   1   1    1.93753      0.000   14.1421354   8.0362081   0.3175427    0    0    0
        94   1   1    1.93753      0.000   19.7989895   8.0362081   0.3175427    0    0    0
        95   1   1    1.93753      0.000   25.4558437   8.0362081   0.3175427    0    0    0
        96   1   1    1.93753      0.000   31.1126978   8.9343544  -0.3175427    0    0    0
        97   1   1    1.93753      0.000   36.7695520   8.9343544  -0.3175427    0    0    0
        98   1   1    1.93753      0.000   42.4264061   8.9343544  -0.3175427    0    0    0
        99   1   1    1.93753      0.000   48.0832603   8.9343544  -0.3175427    0    0    0
       100   1   1    1.93753      0.000   53.7401145   8.9343544  -0.3175427    0    0    0
       101   1   1    1.93753      0.000    2.8284271   2.3793539   4.3175427    0    0    0
       102   1   1    1.93753      0.000    8.4852812   2.3793539   4.3175427    0    0    0
       103   1   1    1.93753      0.000   14.1421354   2.3793539   4.3175427    0    0    0
       104   1   1    1.93753      0.000   19.7989895   2.3793539   4.3175427    0    0    0
       105   1   1    1.93753      0.000   25.4558437   2.3793539   4.3175427    0    0    0
       106   1   1    1.93753      0.000   31.1126978   3.2775002   3.6824573    0    0    0
       107   1   1    1.93753      0.000   36.7695520   3.2775002   3.6824573    0    0    0
       108   1   1    1.93753      0.000   42.4264061   3.2775002   3.6824573    0    0    0
       109   1   1    1.93753      0.000   48.0832603   3.2775002   3.6824573    0    0    0
       110   1   1    1.93753      0.000   53.7401145   3.2775002   3.6824573    0    0    0
       111   1   1    1.93753      0.000    2.8284271   8.0362081   4.3175427    0    0    0
       112   1   1    1.93753      0.000    8.4852812   8.0362081   4.3175427    0    0    0
       113   1   1    1.93753      0.000   14.1421354   8.0362081   4.3175427    0    0    0
       114   1   1    1.93753      0.000   19.7989895   8.0362081   4.3175427    0    0    0
       115   1   1    1.93753      0.000   25.4558437   8.0362081   4.3175427    0    0    0
       116   1   1    1.93753      0.000   31.1126978   8.9343544   3.6824573    0    0    0
       117   1   1    1.93753      0.000   36.7695520   8.9343544   3.6824573    0    0    0
       118   1   1    1.93753      0.000   42.4264061   8.9343544   3.6824573    0    0    0
       119   1   1    1.93753      0.000   48.0832603   8.9343544   3.6824573    0    0    0
       120   1   1    1.93753      0.000   53.7401145   8.9343544   3.6824573    0    0    0
       121   1   1    1.93753      0.000    2.8284271   2.3793539   8.3175427    0    0    0
       122   1   1    1.93753      0.000    8.4852812   2.3793539   8.3175427    0    0    0
       123   1   1    1.93753      0.000   14.1421354   2.3793539   8.3175427    0    0    0
       124   1   1    1.93753      0.000   19.7989895   2.3793539   8.3175427    0    0    0
       125   1   1    1.93753      0.000   25.4558437   2.3793539   8.3175427    0    0    0
       126   1   1    1.93753      0.000   31.1126978   3.2775002   7.6824573    0    0    0
       127   1   1    1.93753      0.000   36.7695520   3.2775002   7.6824573    0    0    0
       128   1   1    1.93753      0.000   42.4264061   3.2775002   7.6824573    0    0    0
       129   1   1    1.93753      0.000   48.0832603   3.2775002   7.6824573    0    0    0
       130   1   1    1.93753      0.000   53.7401145   3.2775002   7.6824573    0    0    0
       131   1   1    1.93753      0.000    2.8284271   8.0362081   8.3175427    0    0    0
       132   1   1    1.93753      0.000    8.4852812   8.0362081   8.3175427    0    0    0
       133   1   1    1.93753      0.000   14.1421354   8.0362081   8.3175427    0    0    0
       134   1   1    1.93753      0.000   19.7989895   8.0362081   8.3175427    0    0    0
       135   1   1    1.93753      0.000   25.4558437   8.0362081   8.3175427    0    0    0
       136   1   1    1.93753      0.000   31.1126978   8.9343544   7.6824573    0    0    0
       137   1   1    1.93753      0.000   36.7695520   8.9343544   7.6824573    0    0    0
       138   1   1    1.93753      0.000   42.4264061   8.9343544   7.6824573    0    0    0
       139   1   1    1.93753      0.000   48.0832603   8.9343544   7.6824573    0    0    0
       140   1   1    1.93753      0.000   53.7401145   8.9343544   7.6824573    0    0    0
       141   1   1    1.93753      0.000    2.8284271   2.3793539  12.3175427    0    0    0
       142   1   1    1.93753      0.000    8.4852812   2.3793539  12.3175427    0    0    0
       143   1   1    1.93753      0.000   14.1421354   2.3793539  12.3175427    0    0    0
       144   1   1    1.93753      0.000   19.7989895   2.3793539  12.3175427    0    0    0
       145   1   1    1.93753      0.000   25.4558437   2.3793539  12.3175427    0    0    0
       146   1   1    1.93753      0.000   31.1126978   3.2775002  11.6824573    0    0    0
       147   1   1    1.93753      0.000   36.7695520   3.2775002  11.6824573    0    0    0
       148   1   1    1.93753      0.000   42.4264061   3.2775002  11.6824573    0    0    0
       149   1   1    1.93753      0.000   48.0832603   3.2775002  11.6824573    0    0    0
       150   1   1    1.93753      0.000   53.7401145   3.2775002  11.6824573    0    0    0
       151   1   1    1.93753      0.000    2.8284271   8.0362081  12.3175427    0    0    0
       152   1   1    1.93753      0.000    8.4852812   8.0362081  12.3175427    0    0    0
       153   1   1    1.93753      0.000   14.1421354   8.0362081  12.3175427    0    0    0
       154   1   1    1.93753      0.000   19.7989895   8.0362081  12.3175427    0    0    0
       155   1   1    1.93753      0.000   25.4558437   8.0362081  12.3175427    0    0    0
       156   1   1    1.93753      0.000   31.1126978   8.9343544  11.6824573    0    0    0
       157   1   1    1.93753      0.000   36.7695520   8.9343544  11.6824573    0    0    0
       158   1   1    1.93753      0.000   42.4264061   8.9343544  11.6824573    0    0    0
       159   1   1    1.93753      0.000   48.0832603   8.9343544  11.6824573    0    0    0
       160   1   1    1.93753      0.000   53.7401145   8.9343544  11.6824573    0    0    0
       161   1   2    1.77706      2.500    0.0000000   2.6487978   2.1270171    0    0   -1
       162   1   2    1.77706      2.500    5.6568542   2.6487978   2.1270171    0    0   -1
       163   1   2    1.77706      2.500   11.3137083   2.6487978   2.1270171    0    0   -1
       164   1   2    1.77706      2.500   16.9705625   2.6487978   2.1270171    0    0   -1
       165   1   2    1.77706      2.500   22.6274166   2.6487978   2.1270171    0    0   -1
       166   1   2    1.77706      2.500   28.2842708   3.0080563   1.8729829    0    0   -1
       167   1   2    1.77706      2.500   33.9411249   3.0080563   1.8729829    0    0   -1
       168   1   2    1.77706      2.500   39.5979791   3.0080563   1.8729829    0    0   -1
       169   1   2    1.77706      2.500   45.2548332   3.0080563   1.8729829    0    0   -1
       170   1   2    1.77706      2.500   50.9116874   3.0080563   1.8729829    0    0   -1
       171   1   2    1.77706      2.500    0.0000000   8.3056520   2.1270171    0    0   -1
       172   1   2    1.77706      2.500    5.6568542   8.3056520   2.1270171    0    0   -1
       173   1   2    1.77706      2.500   11.3137083   8.3056520   2.1270171    0    0   -1
       174   1   2    1.77706      2.500   16.9705625   8.3056520   2.1270171    0    0   -1
       175   1   2    1.77706      2.500   22.6274166   8.3056520   2.1270171    0    0   -1
       176   1   2    1.77706      2.500   28.2842708   8.6649105   1.8729829    0    0   -1
       177   1   2    1.77706      2.500   33.9411249   8.6649105   1.8729829    0    0   -1
       178   1   2    1.77706      2.500   39.5979791   8.6649105   1.8729829    0    0   -1
       179   1   2    1.77706      2.500   45.2548332   8.6649105   1.8729829    0    0   -1
       180   1   2    1.77706      2.500   50.9116874   8.6649105   1.8729829    0    0   -1
       181   1   2    1.77706      2.500    0.0000000   2.6487978   6.1270171    0    0    1
       182   1   2    1.77706      2.500    5.6568542   2.6487978   6.1270171    0    0    1
       183   1   2    1.77706      2.500   11.3137083   2.6487978   6.1270171    0    0    1
       184   1   2    1.77706      2.500   16.9705625   2.6487978   6.1270171    0    0    1
       185   1   2    1.77706      2.500   22.6274166   2.6487978   6.1270171    0    0    1
       186   1   2    1.77706      2.500   28.2842708   3.0080563   5.8729829    0    0    1
       187   1   2    1.77706      2.500   33.9411249   3.0080563   5.8729829    0    0    1
       188   1   2    1.77706      2.500   39.5979791   3.0080563   5.8729829    0    0    1
       189   1   2    1.77706      2.500   45.2548332   3.0080563   5.8729829    0    0    1
       190   1   2    1.77706      2.500   50.9116874   3.0080563   5.8729829    0    0    1
       191   1   2    1.77706      2.500    0.0000000   8.3056520   6.1270171    0    0    1
       192   1   2    1.77706      2.500    5.6568542   8.3056520   6.1270171    0    0    1
       193   1   2    1.77706      2.500   11.3137083   8.3056520   6.1270171    0    0    1
       194   1   2    1.77706      2.500   16.9705625   8.3056520   6.1270171    0    0    1
       195   1   2    1.77706      2.500   22.6274166   8.3056520   6.1270171    0    0    1
       196   1   2    1.77706      2.500   28.2842708   8.6649105   5.8729829    0    0    1
       197   1   2    1.77706      2.500   33.9411249   8.6649105   5.8729829    0    0    1
       198   1   2    1.77706      2.500   39.5979791   8.6649105   5.8729829    0    0    1
       199   1   2    1.77706      2.500   45.2548332   8.6649105   5.8729829    0    0    1
       200   1   2    1.77706      2.500   50.9116874   8.6649105   5.8729829    0    0    1
       201   1   2    1.77706      2.500    0.0000000   2.6487978  10.1270171    0    0   -1
       202   1   2    1.77706      2.500    5.6568542   2.6487978  10.1270171    0    0   -1
       203   1   2    1.77706      2.500   11.3137083   2.6487978  10.1270171    0    0   -1
       204   1   2    1.77706      2.500   16.9705625   2.6487978  10.1270171    0    0   -1
       205   1   2    1.77706      2.500   22.6274166   2.6487978  10.1270171    0    0   -1
       206   1   2    1.77706      2.500   28.2842708   3.0080563   9.8729829    0    0   -1
       207   1   2    1.77706      2.500   33.9411249   3.0080563   9.8729829    0    0   -1
       208   1   2    1.77706      2.500   39.5979791   3.0080563   9.8729829    0    0   -1
       209   1   2    1.77706      2.500   45.2548332   3.0080563   9.8729829    0    0   -1
       210   1   2    1.77706      2.500   50.9116874   3.0080563   9.8729829    0    0   -1
       211   1   2    1.77706      2.500    0.0000000   8.3056520  10.1270171    0    0   -1
       212   1   2    1.77706      2.500    5.6568542   8.3056520  10.1270171    0    0   -1
       213   1   2    1.77706      2.500   11.3137083   8.3056520  10.1270171    0    0   -1
       214   1   2    1.77706      2.500   16.9705625   8.3056520  10.1270171    0    0   -1
       215   1   2    1.77706      2.500   22.6274166   8.3056520  10.1270171    0    0   -1
       216   1   2    1.77706      2.500   28.2842708   8.6649105   9.8729829    0    0   -1
       217   1   2    1.77706      2.500   33.9411249   8.6649105   9.8729829    0    0   -1
       218   1   2    1.77706      2.500   39.5979791   8.6649105   9.8729829    0    0   -1
       219   1   2    1.77706      2.500   45.2548332   8.6649105   9.8729829    0    0   -1
       220   1   2    1.77706      2.500   50.9116874   8.6649105   9.8729829    0    0   -1
       221   1   2    1.77706      2.500    0.0000000   2.6487978  14.1270171    0    0    1
       222   1   2    1.77706      2.500    5.6568542   2.6487978  14.1270171    0    0    1
       223   1   2    1.77706      2.500   11.3137083   2.6487978  14.1270171    0    0    1
       224   1   2    1.77706      2.500   16.9705625   2.6487978  14.1270171    0    0    1
       225   1   2    1.77706      2.500   22.6274166   2.6487978  14.1270171    0    0    1
       226   1   2    1.77706      2.500   28.2842708   3.0080563  13.8729829    0    0    1
       227   1   2    1.77706      2.500   33.9411249   3.0080563  13.8729829    0    0    1
       228   1   2    1.77706      2.500   39.5979791   3.0080563  13.8729829    0    0    1
       229   1   2    1.77706      2.500   45.2548332   3.0080563  13.8729829    0    0    1
       230   1   2    1.77706      2.500   50.9116874   3.0080563  13.8729829    0    0    1
       231   1   2    1.77706      2.500    0.0000000   8.3056520  14.1270171    0    0    1
       232   1   2    1.77706      2.500    5.6568542   8.3056520  14.1270171    0    0    1
       233   1   2    1.77706      2.500   11.3137083   8.3056520  14.1270171    0    0    1
       234   1   2    1.77706      2.500   16.9705625   8.3056520  14.1270171    0    0    1
       235   1   2    1.77706      2.500   22.6274166   8.3056520  14.1270171    0    0    1
       236   1   2    1.77706      2.500   28.2842708   8.6649105  13.8729829    0    0    1
       237   1   2    1.77706      2.500   33.9411249   8.6649105  13.8729829    0    0    1
       238   1   2    1.77706      2.500   39.5979791   8.6649105  13.8729829    0    0    1
       239   1   2    1.77706      2.500   45.2548332   8.6649105  13.8729829    0    0    1
       240   1   2    1.77706      2.500   50.9116874   8.6649105  13.8729829    0    0    1
       241   1   2    1.77706      2.500    2.8284271  -0.1796293   2.1270171    0    0    1
       242   1   2    1.77706      2.500    8.4852812  -0.1796293   2.1270171    0    0    1
       243   1   2    1.77706      2.500   14.1421354  -0.1796293   2.1270171    0    0    1
       244   1   2    1.77706      2.500   19.7989895  -0.1796293   2.1270171    0    0    1
       245   1   2    1.77706      2.500   25.4558437  -0.1796293   2.1270171    0    0    1
       246   1   2    1.77706      2.500   31.1126978   0.1796293   1.8729829    0    0    1
       247   1   2    1.77706      2.500   36.7695520   0.1796293   1.8729829    0    0    1
       248   1   2    1.77706      2.500   42.4264061   0.1796293   1.8729829    0    0    1
       249   1   2    1.77706      2.500   48.0832603   0.1796293   1.8729829    0    0    1
       250   1   2    1.77706      2.500   53.7401145   0.1796293   1.8729829    0    0    1
       251   1   2    1.77706      2.500    2.8284271   5.4772249   2.1270171    0    0    1
       252   1   2    1.77706      2.500    8.4852812   5.4772249   2.1270171    0    0    1
       253   1   2    1.77706      2.500   14.1421354   5.4772249   2.1270171    0    0    1
       254   1   2    1.77706      2.500   19.7989895   5.4772249   2.1270171    0    0    1
       255   1   2    1.77706      2.500   25.4558437   5.4772249   2.1270171    0    0    1
       256   1   2    1.77706      2.500   31.1126978   5.8364834   1.8729829    0    0    1
       257   1   2    1.77706      2.500   36.7695520   5.8364834   1.8729829    0    0    1
       258   1   2    1.77706      2.500   42.4264061   5.8364834   1.8729829    0    0    1
       259   1   2    1.77706      2.500   48.0832603   5.8364834   1.8729829    0    0    1
       260   1   2    1.77706      2.500   53.7401145   5.8364834   1.8729829    0    0    1
       261   1   2    1.77706      2.500    2.8284271  -0.1796293   6.1270171    0    0   -1
       262   1   2    1.77706      2.500    8.4852812  -0.1796293   6.1270171    0    0   -1
       263   1   2    1.77706      2.500   14.1421354  -0.1796293   6.1270171    0    0   -1
       264   1   2    1.77706      2.500   19.7989895  -0.1796293   6.1270171    0    0   -1
       265   1   2    1.77706      2.500   25.4558437  -0.1796293   6.1270171    0    0   -1
       266   1   2    1.77706      2.500   31.1126978   0.1796293   5.8729829    0    0   -1
       267   1   2    1.77706      2.500   36.7695520   0.1796293   5.8729829    0    0   -1
       268   1   2    1.77706      2.500   42.4264061   0.1796293   5.8729829    0    0   -1
       269   1   2    1.77706      2.500   48.0832603   0.1796293   5.8729829    0    0   -1
       270   1   2    1.77706      2.500   53.7401145   0.1796293   5.8729829    0    0   -1
       271   1   2    1.77706      2.500    2.8284271   5.4772249   6.1270171    0    0   -1
       272   1   2    1.77706      2.500    8.4852812   5.4772249   6.1270171    0    0   -1
       273   1   2    1.77706      2.500   14.1421354   5.4772249   6.1270171    0    0   -1
       274   1   2    1.77706      2.500   19.7989895   5.4772249   6.1270171    0    0   -1
       275   1   2    1.77706      2.500   25.4558437   5.4772249   6.1270171    0    0   -1
       276   1   2    1.77706      2.500   31.1126978   5.8364834   5.8729829    0    0   -1
       277   1   2    1.77706      2.500   36.7695520   5.8364834   5.8729829    0    0   -1
       278   1   2    1.77706      2.500   42.4264061   5.8364834   5.8729829    0    0   -1
       279   1   2    1.77706      2.500   48.0832603   5.8364834   5.8729829    0    0   -1
       280   1   2    1.77706      2.500   53.7401145   5.8364834   5.8729829    0    0   -1
       281   1   2    1.77706      2.500    2.8284271  -0.1796293  10.1270171    0    0    1
       282   1   2    1.77706      2.500    8.4852812  -0.1796293  10.1270171    0    0    1
       283   1   2    1.77706      2.500   14.1421354  -0.1796293  10.1270171    0    0    1
       284   1   2    1.77706      2.500   19.7989895  -0.1796293  10.1270171    0    0    1
       285   1   2    1.77706      2.500   25.4558437  -0.1796293  10.1270171    0    0    1
       286   1   2    1.77706      2.500   31.1126978   0.1796293   9.8729829    0    0    1
       287   1   2    1.77706      2.500   36.7695520   0.1796293   9.8729829    0    0    1
       288   1   2    1.77706      2.500   42.4264061   0.1796293   9.8729829    0    0    1
       289   1   2    1.77706      2.500   48.0832603   0.1796293   9.8729829    0    0    1
       290   1   2    1.77706      2.500   53.7401145   0.1796293   9.8729829    0    0    1
       291   1   2    1.77706      2.500    2.8284271   5.4772249  10.1270171    0    0    1
       292   1   2    1.77706      2.500    8.4852812   5.4772249  10.1270171    0    0    1
       293   1   2    1.77706      2.500   14.1421354   5.4772249  10.1270171    0    0    1
       294   1   2    1.77706      2.500   19.7989895   5.4772249  10.1270171    0    0    1
       295   1   2    1.77706      2.500   25.4558437   5.4772249  10.1270171    0    0    1
       296   1   2    1.77706      2.500   31.1126978   5.8364834   9.8729829    0    0    1
       297   1   2    1.77706      2.500   36.7695520   5.8364834   9.8729829    0    0    1
       298   1   2    1.77706      2.500   42.4264061   5.8364834   9.8729829    0    0    1
       299   1   2    1.77706      2.500   48.0832603   5.8364834   9.8729829    0    0    1
       300   1   2    1.77706      2.500   53.7401145   5.8364834   9.8729829    0    0    1
       301   1   2    1.77706      2.500    2.8284271  -0.1796293  14.1270171    0    0   -1
       302   1   2    1.77706      2.500    8.4852812  -0.1796293  14.1270171    0    0   -1
       303   1   2    1.77706      2.500   14.1421354  -0.1796293  14.1270171    0    0   -1
       304   1   2    1.77706      2.500   19.7989895  -0.1796293  14.1270171    0    0   -1
       305   1   2    1.77706      2.500   25.4558437  -0.1796293  14.1270171    0    0   -1
       306   1   2    1.77706      2.500   31.1126978   0.1796293  13.8729829    0    0   -1
       307   1   2    1.77706      2.500   36.7695520   0.1796293  13.8729829    0    0   -1
       308   1   2    1.77706      2.500   42.4264061   0.1796293  13.8729829    0    0   -1
       309   1   2    1.77706      2.500   48.0832603   0.1796293  13.8729829    0    0   -1
       310   1   2    1.77706      2.500   53.7401145   0.1796293  13.8729829    0    0   -1
       311   1   2    1.77706      2.500    2.8284271   5.4772249  14.1270171    0    0   -1
       312   1   2    1.77706      2.500    8.4852812   5.4772249  14.1270171    0    0   -1
       313   1   2    1.77706      2.500   14.1421354   5.4772249  14.1270171    0    0   -1
       314   1   2    1.77706      2.500   19.7989895   5.4772249  14.1270171    0    0   -1
       315   1   2    1.77706      2.500   25.4558437   5.4772249  14.1270171    0    0   -1
       316   1   2    1.77706      2.500   31.1126978   5.8364834  13.8729829    0    0   -1
       317   1   2    1.77706      2.500   36.7695520   5.8364834  13.8729829    0    0   -1
       318   1   2    1.77706      2.500   42.4264061   5.8364834  13.8729829    0    0   -1
       319   1   2    1.77706      2.500   48.0832603   5.8364834  13.8729829    0    0   -1