 #LAMMPS ABO3 domain
   
      800 atoms
 3  atom types
   
 0.0    56.56854  xlo xhi
 0.0    11.31371  ylo yhi
 0.0    16.00000  zlo zhi
   
 Masses
   
 1   208.98039
 2    55.84500
 3    15.99940
  
   
 Atoms
   
         1   1   1    1.93753    0.0000000  -0.4490731   0.3175427
         2   1   1    1.93753    5.6568542  -0.4490731   0.3175427
         3   1   1    1.93753   11.3137083  -0.4490731   0.3175427
         4   1   1    1.93753   16.9705625  -0.4490731   0.3175427
         5   1   1    1.93753   22.6274166  -0.4490731   0.3175427
         6   1   1    1.93753   28.2842708   0.4490731  -0.3175427
         7   1   1    1.93753   33.9411249   0.4490731  -0.3175427
         8   1   1    1.93753   39.5979791   0.4490731  -0.3175427
         9   1   1    1.93753   45.2548332   0.4490731  -0.3175427
        10   1   1    1.93753   50.9116874   0.4490731  -0.3175427
        11   1   1    1.93753    0.0000000   5.2077810   0.3175427
        12   1   1    1.93753    5.6568542   5.2077810   0.3175427
        13   1   1    1.93753   11.3137083   5.2077810   0.3175427
        14   1   1    1.93753   16.9705625   5.2077810   0.3175427
        15   1   1    1.93753   22.6274166   5.2077810   0.3175427
        16   1   1    1.93753   28.2842708   6.1059273  -0.3175427
        17   1   1    1.93753   33.9411249   6.1059273  -0.3175427
        18   1   1    1.93753   39.5979791   6.1059273  -0.3175427
        19   1   1    1.93753   45.2548332   6.1059273  -0.3175427
        20   1   1    1.93753   50.9116874   6.1059273  -0.3175427
        21   1   1    1.93753    0.0000000  -0.4490731   4.3175427
        22   1   1    1.93753    5.6568542  -0.4490731   4.3175427
        23   1   1    1.93753   11.3137083  -0.4490731   4.3175427
        24   1   1    1.93753   16.9705625  -0.4490731   4.3175427
        25   1   1    1.93753   22.6274166  -0.4490731   4.3175427
        26   1   1    1.93753   28.2842708   0.4490731   3.6824573
        27   1   1    1.93753   33.9411249   0.4490731   3.6824573
        28   1   1    1.93753   39.5979791   0.4490731   3.6824573
        29   1   1    1.93753   45.2548332   0.4490731   3.6824573
        30   1   1    1.93753   50.9116874   0.4490731   3.6824573
        31   1   1    1.93753    0.0000000   5.2077810   4.3175427
        32   1   1    1.93753    5.6568542   5.2077810   4.3175427
        33   1   1    1.93753   11.3137083   5.2077810   4.3175427
        34   1   1    1.93753   16.9705625   5.2077810   4.3175427
        35   1   1    1.93753   22.6274166   5.2077810   4.3175427
        36   1   1    1.93753   28.2842708   6.1059273   3.6824573
        37   1   1    1.93753   33.9411249   6.1059273   3.6824573
        38   1   1    1.93753   39.5979791   6.1059273   3.6824573
        39   1   1    1.93753   45.2548332   6.1059273   3.6824573
        40   1   1    1.93753   50.9116874   6.1059273   3.6824573
        41   1   1    1.93753    0.0000000  -0.4490731   8.3175427
        42   1   1    1.93753    5.6568542  -0.4490731   8.3175427
        43   1   1    1.93753   11.3137083  -0.4490731   8.3175427
        44   1   1    1.93753   16.9705625  -0.4490731   8.3175427
        45   1   1    1.93753   22.6274166  -0.4490731   8.3175427
        46   1   1    1.93753   28.2842708   0.4490731   7.6824573
        47   1   1    1.93753   33.9411249   0.4490731   7.6824573
        48   1   1    1.93753   39.5979791   0.4490731   7.6824573
        49   1   1    1.93753   45.2548332   0.4490731   7.6824573
        50   1   1    1.93753   50.9116874   0.4490731   7.6824573
        51   1   1    1.93753    0.0000000   5.2077810   8.3175427
        52   1   1    1.93753    5.6568542   5.2077810   8.3175427
        53   1   1    1.93753   11.3137083   5.2077810   8.3175427
        54   1   1    1.93753   16.9705625   5.2077810   8.3175427
        55   1   1    1.93753   22.6274166   5.2077810   8.3175427
        56   1   1    1.93753   28.2842708   6.1059273   7.6824573
        57   1   1    1.93753   33.9411249   6.1059273   7.6824573
        58   1   1    1.93753   39.5979791   6.1059273   7.6824573
        59   1   1    1.93753   45.2548332   6.1059273   7.6824573
        60   1   1    1.93753   50.9116874   6.1059273   7.6824573
        61   1   1    1.93753    0.0000000  -0.4490731  12.3175427
        62   1   1    1.93753    5.6568542  -0.4490731  12.3175427
        63   1   1    1.93753   11.3137083  -0.4490731  12.3175427
        64   1   1    1.93753   16.9705625  -0.4490731  12.3175427
        65   1   1    1.93753   22.6274166  -0.4490731  12.3175427
        66   1   1    1.93753   28.2842708   0.4490731  11.6824573
        67   1   1    1.93753   33.9411249   0.4490731  11.6824573
        68   1   1    1.93753   39.5979791   0.4490731  11.6824573
        69   1   1    1.93753   45.2548332   0.4490731  11.6824573
        70   1   1    1.93753   50.9116874   0.4490731  11.6824573
        71   1   1    1.93753    0.0000000   5.2077810  12.3175427
        72   1   1    1.93753    5.6568542   5.2077810  12.3175427
        73   1   1    1.93753   11.3137083   5.2077810  12.3175427
        74   1   1    1.93753   16.9705625   5.2077810  12.3175427
        75   1   1    1.93753   22.6274166   5.2077810  12.3175427
        76   1   1    1.93753   28.2842708   6.1059273  11.6824573
        77   1   1    1.93753   33.9411249   6.1059273  11.6824573
        78   1   1    1.93753   39.5979791   6.1059273  11.6824573
        79   1   1    1.93753   45.2548332   6.1059273  11.6824573
        80   1   1    1.93753   50.9116874   6.1059273  11.6824573
        81   1   1    1.93753    2.8284271   2.3793539   0.3175427
        82   1   1    1.93753    8.4852812   2.3793539   0.3175427
        83   1   1    1.93753   14.1421354   2.3793539   0.3175427
        84   1   1    1.93753   19.7989895   2.3793539   0.3175427
        85   1   1    1.93753   25.4558437   2.3793539   0.3175427
        86   1   1    1.93753   31.1126978   3.2775002  -0.3175427
        87   1   1    1.93753   36.7695520   3.2775002  -0.3175427
        88   1   1    1.93753   42.4264061   3.2775002  -0.3175427
        89   1   1    1.93753   48.0832603   3.2775002  -0.3175427
        90   1   1    1.93753   53.7401145   3.2775002  -0.3175427
        91   1   1    1.93753    2.8284271   8.0362081   0.3175427
        92   1   1    1.93753    8.4852812   8.0362081   0.3175427
        93   1   1    1.93753   14.1421354   8.0362081   0.3175427
        94   1   1    1.93753   19.7989895   8.0362081   0.3175427
        95   1   1    1.93753   25.4558437   8.0362081   0.3175427
        96   1   1    1.93753   31.1126978   8.9343544  -0.3175427
        97   1   1    1.93753   36.7695520   8.9343544  -0.3175427
        98   1   1    1.93753   42.4264061   8.9343544  -0.3175427
        99   1   1    1.93753   48.0832603   8.9343544  -0.3175427
       100   1   1    1.93753   53.7401145   8.9343544  -0.3175427
       101   1   1    1.93753    2.8284271   2.3793539   4.3175427
       102   1   1    1.93753    8.4852812   2.3793539   4.3175427
       103   1   1    1.93753   14.1421354   2.3793539   4.3175427
       104   1   1    1.93753   19.7989895   2.3793539   4.3175427
       105   1   1    1.93753   25.4558437   2.3793539   4.3175427
       106   1   1    1.93753   31.1126978   3.2775002   3.6824573
       107   1   1    1.93753   36.7695520   3.2775002   3.6824573
       108   1   1    1.93753   42.4264061   3.2775002   3.6824573
       109   1   1    1.93753   48.0832603   3.2775002   3.6824573
       110   1   1    1.93753   53.7401145   3.2775002   3.6824573
       111   1   1    1.93753    2.8284271   8.0362081   4.3175427
       112   1   1    1.93753    8.4852812   8.0362081   4.3175427
       113   1   1    1.93753   14.1421354   8.0362081   4.3175427
       114   1   1    1.93753   19.7989895   8.0362081   4.3175427
       115   1   1    1.93753   25.4558437   8.0362081   4.3175427
       116   1   1    1.93753   31.1126978   8.9343544   3.6824573
       117   1   1    1.93753   36.7695520   8.9343544   3.6824573
       118   1   1    1.93753   42.4264061   8.9343544   3.6824573
       119   1   1    1.93753   48.0832603   8.9343544   3.6824573
       120   1   1    1.93753   53.7401145   8.9343544   3.6824573
       121   1   1    1.93753    2.8284271   2.3793539   8.3175427
       122   1   1    1.93753    8.4852812   2.3793539   8.3175427
       123   1   1    1.93753   14.1421354   2.3793539   8.3175427
       124   1   1    1.93753   19.7989895   2.3793539   8.3175427
       125   1   1    1.93753   25.4558437   2.3793539   8.3175427
       126   1   1    1.93753   31.1126978   3.2775002   7.6824573
       127   1   1    1.93753   36.7695520   3.2775002   7.6824573
       128   1   1    1.93753   42.4264061   3.2775002   7.6824573
       129   1   1    1.93753   48.0832603   3.2775002   7.6824573
       130   1   1    1.93753   53.7401145   3.2775002   7.6824573
       131   1   1    1.93753    2.8284271   8.0362081   8.3175427
       132   1   1    1.93753    8.4852812   8.0362081   8.3175427
       133   1   1    1.93753   14.1421354   8.0362081   8.3175427
       134   1   1    1.93753   19.7989895   8.0362081   8.3175427
       135   1   1    1.93753   25.4558437   8.0362081   8.3175427
       136   1   1    1.93753   31.1126978   8.9343544   7.6824573
       137   1   1    1.93753   36.7695520   8.9343544   7.6824573
       138   1   1    1.93753   42.4264061   8.9343544   7.6824573
       139   1   1    1.93753   48.0832603   8.9343544   7.6824573
       140   1   1    1.93753   53.7401145   8.9343544   7.6824573
       141   1   1    1.93753    2.8284271   2.3793539  12.3175427
       142   1   1    1.93753    8.4852812   2.3793539  12.3175427
       143   1   1    1.93753   14.1421354   2.3793539  12.3175427
       144   1   1    1.93753   19.7989895   2.3793539  12.3175427
       145   1   1    1.93753   25.4558437   2.3793539  12.3175427
       146   1   1    1.93753   31.1126978   3.2775002  11.6824573
       147   1   1    1.93753   36.7695520   3.2775002  11.6824573
       148   1   1    1.93753   42.4264061   3.2775002  11.6824573
       149   1   1    1.93753   48.0832603   3.2775002  11.6824573
       150   1   1    1.93753   53.7401145   3.2775002  11.6824573
       151   1   1    1.93753    2.8284271   8.0362081  12.3175427
       152   1   1    1.93753    8.4852812   8.0362081  12.3175427
       153   1   1    1.93753   14.1421354   8.0362081  12.3175427
       154   1   1    1.93753   19.7989895   8.0362081  12.3175427
       155   1   1    1.93753   25.4558437   8.0362081  12.3175427
       156   1   1    1.93753   31.1126978   8.9343544  11.6824573
       157   1   1    1.93753   36.7695520   8.9343544  11.6824573
       158   1   1    1.93753   42.4264061   8.9343544  11.6824573
       159   1   1    1.93753   48.0832603   8.9343544  11.6824573
       160   1   1    1.93753   53.7401145   8.9343544  11.6824573
       161   1   2    1.77706    0.0000000   2.6487978   2.1270171
       162   1   2    1.77706    5.6568542   2.6487978   2.1270171
       163   1   2    1.77706   11.3137083   2.6487978   2.1270171
       164   1   2    1.77706   16.9705625   2.6487978   2.1270171
       165   1   2    1.77706   22.6274166   2.6487978   2.1270171
       166   1   2    1.77706   28.2842708   3.0080563   1.8729829
       167   1   2    1.77706   33.9411249   3.0080563   1.8729829
       168   1   2    1.77706   39.5979791   3.0080563   1.8729829
       169   1   2    1.77706   45.2548332   3.0080563   1.8729829
       170   1   2    1.77706   50.9116874   3.0080563   1.8729829
       171   1   2    1.77706    0.0000000   8.3056520   2.1270171
       172   1   2    1.77706    5.6568542   8.3056520   2.1270171
       173   1   2    1.77706   11.3137083   8.3056520   2.1270171
       174   1   2    1.77706   16.9705625   8.3056520   2.1270171
       175   1   2    1.77706   22.6274166   8.3056520   2.1270171
       176   1   2    1.77706   28.2842708   8.6649105   1.8729829
       177   1   2    1.77706   33.9411249   8.6649105   1.8729829
       178   1   2    1.77706   39.5979791   8.6649105   1.8729829
       179   1   2    1.77706   45.2548332   8.6649105   1.8729829
       180   1   2    1.77706   50.9116874   8.6649105   1.8729829
       181   1   2    1.77706    0.0000000   2.6487978   6.1270171
       182   1   2    1.77706    5.6568542   2.6487978   6.1270171
       183   1   2    1.77706   11.3137083   2.6487978   6.1270171
       184   1   2    1.77706   16.9705625   2.6487978   6.1270171
       185   1   2    1.77706   22.6274166   2.6487978   6.1270171
       186   1   2    1.77706   28.2842708   3.0080563   5.8729829
       187   1   2    1.77706   33.9411249   3.0080563   5.8729829
       188   1   2    1.77706   39.5979791   3.0080563   5.8729829
       189   1   2    1.77706   45.2548332   3.0080563   5.8729829
       190   1   2    1.77706   50.9116874   3.0080563   5.8729829
       191   1   2    1.77706    0.0000000   8.3056520   6.1270171
       192   1   2    1.77706    5.6568542   8.3056520   6.1270171
       193   1   2    1.77706   11.3137083   8.3056520   6.1270171
       194   1   2    1.77706   16.9705625   8.3056520   6.1270171
       195   1   2    1.77706   22.6274166   8.3056520   6.1270171
       196   1   2    1.77706   28.2842708   8.6649105   5.8729829
       197   1   2    1.77706   33.9411249   8.6649105   5.8729829
       198   1   2    1.77706   39.5979791   8.6649105   5.8729829
       199   1   2    1.77706   45.2548332   8.6649105   5.8729829
       200   1   2    1.77706   50.9116874   8.6649105   5.8729829
       201   1   2    1.77706    0.0000000   2.6487978  10.1270171
       202   1   2    1.77706    5.6568542   2.6487978  10.1270171
       203   1   2    1.77706   11.3137083   2.6487978  10.1270171
       204   1   2    1.77706   16.9705625   2.6487978  10.1270171
       205   1   2    1.77706   22.6274166   2.6487978  10.1270171
       206   1   2    1.77706   28.2842708   3.0080563   9.8729829
       207   1   2    1.77706   33.9411249   3.0080563   9.8729829
       208   1   2    1.77706   39.5979791   3.0080563   9.8729829
       209   1   2    1.77706   45.2548332   3.0080563   9.8729829
       210   1   2    1.77706   50.9116874   3.0080563   9.8729829
       211   1   2    1.77706    0.0000000   8.3056520  10.1270171
       212   1   2    1.77706    5.6568542   8.3056520  10.1270171
       213   1   2    1.77706   11.3137083   8.3056520  10.1270171
       214   1   2    1.77706   16.9705625   8.3056520  10.1270171
       215   1   2    1.77706   22.6274166   8.3056520  10.1270171
       216   1   2    1.77706   28.2842708   8.6649105   9.8729829
       217   1   2    1.77706   33.9411249   8.6649105   9.8729829
       218   1   2    1.77706   39.5979791   8.6649105   9.8729829
       219   1   2    1.77706   45.2548332   8.6649105   9.8729829
       220   1   2    1.77706   50.9116874   8.6649105   9.8729829
       221   1   2    1.77706    0.0000000   2.6487978  14.1270171
       222   1   2    1.77706    5.6568542   2.6487978  14.1270171
       223   1   2    1.77706   11.3137083   2.6487978  14.1270171
       224   1   2    1.77706   16.9705625   2.6487978  14.1270171
       225   1   2    1.77706   22.6274166   2.6487978  14.1270171
       226   1   2    1.77706   28.2842708   3.0080563  13.8729829
       227   1   2    1.77706   33.9411249   3.0080563  13.8729829
       228   1   2    1.77706   39.5979791   3.0080563  13.8729829
       229   1   2    1.77706   45.2548332   3.0080563  13.8729829
       230   1   2    1.77706   50.9116874   3.0080563  13.8729829
       231   1   2    1.77706    0.0000000   8.3056520  14.1270171
       232   1   2    1.77706    5.6568542   8.3056520  14.1270171
       233   1   2    1.77706   11.3137083   8.3056520  14.1270171
       234   1   2    1.77706   16.9705625   8.3056520  14.1270171
       235   1   2    1.77706   22.6274166   8.3056520  14.1270171
       236   1   2    1.77706   28.2842708   8.6649105  13.8729829
       237   1   2    1.77706   33.9411249   8.6649105  13.8729829
       238   1   2    1.77706   39.5979791   8.6649105  13.8729829
       239   1   2    1.77706   45.2548332   8.6649105  13.8729829
       240   1   2    1.77706   50.9116874   8.6649105  13.8729829
       241   1   2    1.77706    2.8284271  -0.1796293   2.1270171
       242   1   2    1.77706    8.4852812  -0.1796293   2.1270171
       243   1   2    1.77706   14.1421354  -0.1796293   2.1270171
       244   1   2    1.77706   19.7989895  -0.1796293   2.1270171
       245   1   2    1.77706   25.4558437  -0.1796293   2.1270171
       246   1   2    1.77706   31.1126978   0.1796293   1.8729829
       247   1   2    1.77706   36.7695520   0.1796293   1.8729829
       248   1   2    1.77706   42.4264061   0.1796293   1.8729829
       249   1   2    1.77706   48.0832603   0.1796293   1.8729829
       250   1   2    1.77706   53.7401145   0.1796293   1.8729829
       251   1   2    1.77706    2.8284271   5.4772249   2.1270171
       252   1   2    1.77706    8.4852812   5.4772249   2.1270171
       253   1   2    1.77706   14.1421354   5.4772249   2.1270171
       254   1   2    1.77706   19.7989895   5.4772249   2.1270171
       255   1   2    1.77706   25.4558437   5.4772249   2.1270171
       256   1   2    1.77706   31.1126978   5.8364834   1.8729829
       257   1   2    1.77706   36.7695520   5.8364834   1.8729829
       258   1   2    1.77706   42.4264061   5.8364834   1.8729829
       259   1   2    1.77706   48.0832603   5.8364834   1.8729829
       260   1   2    1.77706   53.7401145   5.8364834   1.8729829
       261   1   2    1.77706    2.8284271  -0.1796293   6.1270171
       262   1   2    1.77706    8.4852812  -0.1796293   6.1270171
       263   1   2    1.77706   14.1421354  -0.1796293   6.1270171
       264   1   2    1.77706   19.7989895  -0.1796293   6.1270171
       265   1   2    1.77706   25.4558437  -0.1796293   6.1270171
       266   1   2    1.77706   31.1126978   0.1796293   5.8729829
       267   1   2    1.77706   36.7695520   0.1796293   5.8729829
       268   1   2    1.77706   42.4264061   0.1796293   5.8729829
       269   1   2    1.77706   48.0832603   0.1796293   5.8729829
       270   1   2    1.77706   53.7401145   0.1796293   5.8729829
       271   1   2    1.77706    2.8284271   5.4772249   6.1270171
       272   1   2    1.77706    8.4852812   5.4772249   6.1270171
       273   1   2    1.77706   14.1421354   5.4772249   6.1270171
       274   1   2    1.77706   19.7989895   5.4772249   6.1270171
       275   1   2    1.77706   25.4558437   5.4772249   6.1270171
       276   1   2    1.77706   31.1126978   5.8364834   5.8729829
       277   1   2    1.77706   36.7695520   5.8364834   5.8729829
       278   1   2    1.77706   42.4264061   5.8364834   5.8729829
       279   1   2    1.77706   48.0832603   5.8364834   5.8729829
       280   1   2    1.77706   53.7401145   5.8364834   5.8729829
       281   1   2    1.77706    2.8284271  -0.1796293  10.1270171
       282   1   2    1.77706    8.4852812  -0.1796293  10.1270171
       283   1   2    1.77706   14.1421354  -0.1796293  10.1270171
       284   1   2    1.77706   19.7989895  -0.1796293  10.1270171
       285   1   2    1.77706   25.4558437  -0.1796293  10.1270171
       286   1   2    1.77706   31.1126978   0.1796293   9.8729829
       287   1   2    1.77706   36.7695520   0.1796293   9.8729829
       288   1   2    1.77706   42.4264061   0.1796293   9.8729829
       289   1   2    1.77706   48.0832603   0.1796293   9.8729829
       290   1   2    1.77706   53.7401145   0.1796293   9.8729829
       291   1   2    1.77706    2.8284271   5.4772249  10.1270171
       292   1   2    1.77706    8.4852812   5.4772249  10.1270171
       293   1   2    1.77706   14.1421354   5.4772249  10.1270171
       294   1   2    1.77706   19.7989895   5.4772249  10.1270171
       295   1   2    1.77706   25.4558437   5.4772249  10.1270171
       296   1   2    1.77706   31.1126978   5.8364834   9.8729829
       297   1   2    1.77706   36.7695520   5.8364834   9.8729829
       298   1   2    1.77706   42.4264061   5.8364834   9.8729829
       299   1   2    1.77706   48.0832603   5.8364834   9.8729829
       300   1   2    1.77706   53.7401145   5.8364834   9.8729829
       301   1   2    1.77706    2.8284271  -0.1796293  14.1270171
       302   1   2    1.77706    8.4852812  -0.1796293  14.1270171
       303   1   2    1.77706   14.1421354  -0.1796293  14.1270171
       304   1   2    1.77706   19.7989895  -0.1796293  14.1270171
       305   1   2    1.77706   25.4558437  -0.1796293  14.1270171
       306   1   2    1.77706   31.1126978   0.1796293  13.8729829
       307   1   2    1.77706   36.7695520   0.1796293  13.8729829
       308   1   2    1.77706   42.4264061   0.1796293  13.8729829
       309   1   2    1.77706   48.0832603   0.1796293  13.8729829
       310   1   2    1.77706   53.7401145   0.1796293  13.8729829
       311   1   2    1.77706    2.8284271   5.4772249  14.1270171
       312   1   2    1.77706    8.4852812   5.4772249  14.1270171
       313   1   2    1.77706   14.1421354   5.4772249  14.1270171
       314   1   2    1.77706   19.7989895   5.4772249  14.1270171
       315   1   2    1.77706   25.4558437   5.4772249  14.1270171
       316   1   2    1.77706   31.1126978   5.8364834  13.8729829
       317   1   2    1.77706   36.7695520   5.8364834  13.8729829
       318   1   2    1.77706   42.4264061   5.8364834  13.8729829
       319   1   2    1.77706   48.0832603   5.8364834  13.8729829
       320   1   2    1.77706   53.7401145   5.8364834  13.8729829
       321   1   3   -1.23820   -0.0322891   2.4014529  -0.0152212
       322   1   3   -1.23820    5.6245651   2.4014529  -0.0152212
       323   1   3   -1.23820   11.2814192   2.4014529  -0.0152212
       324   1   3   -1.23820   16.9382734   2.4014529  -0.0152212
       325   1   3   -1.23820   22.5951276   2.4014529  -0.0152212
       326   1   3   -1.23820   28.2519817   2.4014529  -0.0152212
       327   1   3   -1.23820   33.9088359   2.4014529  -0.0152212
       328   1   3   -1.23820   39.5656900   2.4014529  -0.0152212
       329   1   3   -1.23820   45.2225442   2.4014529  -0.0152212
       330   1   3   -1.23820   50.8793983   2.4014529  -0.0152212
       331   1   3   -1.23820   -0.0322891   8.0583070  -0.0152212
       332   1   3   -1.23820    5.6245651   8.0583070  -0.0152212
       333   1   3   -1.23820   11.2814192   8.0583070  -0.0152212
       334   1   3   -1.23820   16.9382734   8.0583070  -0.0152212
       335   1   3   -1.23820   22.5951276   8.0583070  -0.0152212
       336   1   3   -1.23820   28.2519817   8.0583070  -0.0152212
       337   1   3   -1.23820   33.9088359   8.0583070  -0.0152212
       338   1   3   -1.23820   39.5656900   8.0583070  -0.0152212
       339   1   3   -1.23820   45.2225442   8.0583070  -0.0152212
       340   1   3   -1.23820   50.8793983   8.0583070  -0.0152212
       341   1   3   -1.23820   -0.0635952   3.6823755   4.0917906
       342   1   3   -1.23820    5.5932590   3.6823755   4.0917906
       343   1   3   -1.23820   11.2501131   3.6823755   4.0917906
       344   1   3   -1.23820   16.9069673   3.6823755   4.0917906
       345   1   3   -1.23820   22.5638215   3.6823755   4.0917906
       346   1   3   -1.23820   28.2206756   3.6823755   4.0917906
       347   1   3   -1.23820   33.8775298   3.6823755   4.0917906
       348   1   3   -1.23820   39.5343839   3.6823755   4.0917906
       349   1   3   -1.23820   45.1912381   3.6823755   4.0917906
       350   1   3   -1.23820   50.8480922   3.6823755   4.0917906
       351   1   3   -1.23820   -0.0635952   9.3392296   4.0917906
       352   1   3   -1.23820    5.5932590   9.3392296   4.0917906
       353   1   3   -1.23820   11.2501131   9.3392296   4.0917906
       354   1   3   -1.23820   16.9069673   9.3392296   4.0917906
       355   1   3   -1.23820   22.5638215   9.3392296   4.0917906
       356   1   3   -1.23820   28.2206756   9.3392296   4.0917906
       357   1   3   -1.23820   33.8775298   9.3392296   4.0917906
       358   1   3   -1.23820   39.5343839   9.3392296   4.0917906
       359   1   3   -1.23820   45.1912381   9.3392296   4.0917906
       360   1   3   -1.23820   50.8480922   9.3392296   4.0917906
       361   1   3   -1.23820   -0.0635952   1.9744787   8.0917906
       362   1   3   -1.23820    5.5932590   1.9744787   8.0917906
       363   1   3   -1.23820   11.2501131   1.9744787   8.0917906
       364   1   3   -1.23820   16.9069673   1.9744787   8.0917906
       365   1   3   -1.23820   22.5638215   1.9744787   8.0917906
       366   1   3   -1.23820   28.2206756   1.9744787   8.0917906
       367   1   3   -1.23820   33.8775298   1.9744787   8.0917906
       368   1   3   -1.23820   39.5343839   1.9744787   8.0917906
       369   1   3   -1.23820   45.1912381   1.9744787   8.0917906
       370   1   3   -1.23820   50.8480922   1.9744787   8.0917906
       371   1   3   -1.23820   -0.0635952   7.6313328   8.0917906
       372   1   3   -1.23820    5.5932590   7.6313328   8.0917906
       373   1   3   -1.23820   11.2501131   7.6313328   8.0917906
       374   1   3   -1.23820   16.9069673   7.6313328   8.0917906
       375   1   3   -1.23820   22.5638215   7.6313328   8.0917906
       376   1   3   -1.23820   28.2206756   7.6313328   8.0917906
       377   1   3   -1.23820   33.8775298   7.6313328   8.0917906
       378   1   3   -1.23820   39.5343839   7.6313328   8.0917906
       379   1   3   -1.23820   45.1912381   7.6313328   8.0917906
       380   1   3   -1.23820   50.8480922   7.6313328   8.0917906
       381   1   3   -1.23820   -0.0635952   3.6823755  12.0917906
       382   1   3   -1.23820    5.5932590   3.6823755  12.0917906
       383   1   3   -1.23820   11.2501131   3.6823755  12.0917906
       384   1   3   -1.23820   16.9069673   3.6823755  12.0917906
       385   1   3   -1.23820   22.5638215   3.6823755  12.0917906
       386   1   3   -1.23820   28.2206756   3.6823755  12.0917906
       387   1   3   -1.23820   33.8775298   3.6823755  12.0917906
       388   1   3   -1.23820   39.5343839   3.6823755  12.0917906
       389   1   3   -1.23820   45.1912381   3.6823755  12.0917906
       390   1   3   -1.23820   50.8480922   3.6823755  12.0917906
       391   1   3   -1.23820   -0.0635952   9.3392296  12.0917906
       392   1   3   -1.23820    5.5932590   9.3392296  12.0917906
       393   1   3   -1.23820   11.2501131   9.3392296  12.0917906
       394   1   3   -1.23820   16.9069673   9.3392296  12.0917906
       395   1   3   -1.23820   22.5638215   9.3392296  12.0917906
       396   1   3   -1.23820   28.2206756   9.3392296  12.0917906
       397   1   3   -1.23820   33.8775298   9.3392296  12.0917906
       398   1   3   -1.23820   39.5343839   9.3392296  12.0917906
       399   1   3   -1.23820   45.1912381   9.3392296  12.0917906
       400   1   3   -1.23820   50.8480922   9.3392296  12.0917906
       401   1   3   -1.23820    2.7961380   0.4269742  -0.0152212
       402   1   3   -1.23820    8.4529922   0.4269742  -0.0152212
       403   1   3   -1.23820   14.1098463   0.4269742  -0.0152212
       404   1   3   -1.23820   19.7667005   0.4269742  -0.0152212
       405   1   3   -1.23820   25.4235546   0.4269742  -0.0152212
       406   1   3   -1.23820   31.0804088   0.4269742  -0.0152212
       407   1   3   -1.23820   36.7372629   0.4269742  -0.0152212
       408   1   3   -1.23820   42.3941171   0.4269742  -0.0152212
       409   1   3   -1.23820   48.0509712   0.4269742  -0.0152212
       410   1   3   -1.23820   53.7078254   0.4269742  -0.0152212
       411   1   3   -1.23820    2.7961380   6.0838283  -0.0152212
       412   1   3   -1.23820    8.4529922   6.0838283  -0.0152212
       413   1   3   -1.23820   14.1098463   6.0838283  -0.0152212
       414   1   3   -1.23820   19.7667005   6.0838283  -0.0152212
       415   1   3   -1.23820   25.4235546   6.0838283  -0.0152212
       416   1   3   -1.23820   31.0804088   6.0838283  -0.0152212
       417   1   3   -1.23820   36.7372629   6.0838283  -0.0152212
       418   1   3   -1.23820   42.3941171   6.0838283  -0.0152212
       419   1   3   -1.23820   48.0509712   6.0838283  -0.0152212
       420   1   3   -1.23820   53.7078254   6.0838283  -0.0152212
       421   1   3   -1.23820    2.7648319  -0.8539484   4.0917906
       422   1   3   -1.23820    8.4216861  -0.8539484   4.0917906
       423   1   3   -1.23820   14.0785402  -0.8539484   4.0917906
       424   1   3   -1.23820   19.7353944  -0.8539484   4.0917906
       425   1   3   -1.23820   25.3922485  -0.8539484   4.0917906
       426   1   3   -1.23820   31.0491027  -0.8539484   4.0917906
       427   1   3   -1.23820   36.7059568  -0.8539484   4.0917906
       428   1   3   -1.23820   42.3628110  -0.8539484   4.0917906
       429   1   3   -1.23820   48.0196651  -0.8539484   4.0917906
       430   1   3   -1.23820   53.6765193  -0.8539484   4.0917906
       431   1   3   -1.23820    2.7648319   4.8029058   4.0917906
       432   1   3   -1.23820    8.4216861   4.8029058   4.0917906
       433   1   3   -1.23820   14.0785402   4.8029058   4.0917906
       434   1   3   -1.23820   19.7353944   4.8029058   4.0917906
       435   1   3   -1.23820   25.3922485   4.8029058   4.0917906
       436   1   3   -1.23820   31.0491027   4.8029058   4.0917906
       437   1   3   -1.23820   36.7059568   4.8029058   4.0917906
       438   1   3   -1.23820   42.3628110   4.8029058   4.0917906
       439   1   3   -1.23820   48.0196651   4.8029058   4.0917906
       440   1   3   -1.23820   53.6765193   4.8029058   4.0917906
       441   1   3   -1.23820    2.7648319   0.8539484   8.0917906
       442   1   3   -1.23820    8.4216861   0.8539484   8.0917906
       443   1   3   -1.23820   14.0785402   0.8539484   8.0917906
       444   1   3   -1.23820   19.7353944   0.8539484   8.0917906